	reset_timestep  	0
	fix 			1 all nve
	compute   		myKE all ke/atom
	compute   		myPE all pe/atom
	compute   		myStress all stress/atom virial
	compute   		flux all heat/flux myKE myPE myStress
	variable  		Jx equal c_flux[1]/vol
	variable  		Jy equal c_flux[2]/vol
	variable  		Jz equal c_flux[3]/vol
	fix       		JJ all ave/correlate $s $p $d c_flux[1] c_flux[2] c_flux[3] type auto file J0Jt_${iseed}.dat ave running
	fix       		JJ all ave/correlate 5 $p $d c_flux[1] c_flux[2] c_flux[3] type auto file J0Jt_${iseed}.dat ave running
	fix       		JJ all ave/correlate 5 200000 $d c_flux[1] c_flux[2] c_flux[3] type auto file J0Jt_${iseed}.dat ave running
	fix       		JJ all ave/correlate 5 200000 1000000 c_flux[1] c_flux[2] c_flux[3] type auto file J0Jt_${iseed}.dat ave running
	fix       		JJ all ave/correlate 5 200000 1000000 c_flux[1] c_flux[2] c_flux[3] type auto file J0Jt_4.dat ave running
#	fix       		JJ all ave/correlate $s $p $d c_flux[1] c_flux[2] c_flux[3] type auto ave running
#	dump			JJ all custom 1000000 J0Jt.dat f_JJ[3] f_JJ[4] f_JJ[5]
	compute 		myDis all msd
	thermo_style 		custom step temp press vol c_myDis[4] v_Jx v_Jy v_Jz
	thermo			1000
	timestep		${dt}
	timestep		0.0020000000000000000416
	run			2000000
Memory usage per processor = 3.08201 Mbytes
Step Temp Press Volume myDis[4] Jx Jy Jz 
       0    2.6558655  0.023658444    28372.625            0 -0.0018721904  0.010260235 -0.0027948974 
    1000    2.6491921  0.024383921    28372.625    30.151031 -0.00096960744 0.0099623601 -0.0036831156 
    2000    2.6731926  0.024552169    28372.625    115.65408 0.0015593131 0.0073509334 -0.0037660192 
    3000    2.6344193  0.024977042    28372.625    247.53305 0.0002620505  0.010939855 -0.0062006874 
    4000    2.6517745  0.023559224    28372.625    426.15651 0.0026095302 0.0065257378 -0.0050477981 
    5000    2.6505536  0.023779351    28372.625    644.24801 0.00085207564  0.004759847 -0.0030424421 
    6000    2.6462471   0.02389279    28372.625    892.33179 0.0030807635 -0.00031668187 -6.871133e-05 
    7000    2.6508925  0.023944635    28372.625    1168.6249 0.0032375606 0.00016218937 -0.0042840784 
    8000    2.6637232  0.023458474    28372.625    1444.9461 0.0012804106 -0.00090895156 -0.0014265602 
    9000    2.6507933  0.023636867    28372.625    1734.9427 -0.0025431161 0.00011478806 0.00017651891 
   10000    2.6469045  0.023159628    28372.625    2065.6114 -0.00057139952 -1.6235699e-05 0.0011058222 
   11000     2.657377   0.02376703    28372.625    2429.6796 0.00083831968 -0.0017803393 -0.0017967928 
   12000    2.6630397  0.023535154    28372.625    2798.5182 0.00027657172 0.0017268437 0.00095657484 
   13000    2.6381166  0.024211146    28372.625    3165.6037 0.0016331476 0.0020187037 -0.00059057296 
   14000    2.6548637  0.024101553    28372.625    3551.5332 -0.00030478186 0.00017111241 0.0013164638 
   15000    2.6519279  0.023717057    28372.625    3966.5424 -0.00091796251 -0.00090287357 0.00048961019 
   16000    2.6568759  0.023681703    28372.625    4407.8284 0.00071769204 -0.00055553317 0.0026322233 
   17000    2.6755666  0.023719919    28372.625    4854.5886 -0.0011173887 -0.00030662499 0.0034955983 
   18000    2.6464969   0.02406818    28372.625    5304.7419 -0.002624385 -0.0064242668 0.0035174664 
   19000     2.640368   0.02379045    28372.625    5783.9202 -0.0022383525 -0.0023312915 0.0014325789 
   20000    2.6565389  0.023726612    28372.625    6283.1894 -0.0012115672 -0.00044245301 0.00093810075 
   21000    2.6543159  0.023964892    28372.625    6750.6006 0.0011495685 -0.0022448391  0.001048967 
   22000    2.6534286  0.023573183    28372.625    7191.7549 -0.00044210632 -0.0029813932 6.7674864e-05 
   23000    2.6502115    0.0241356    28372.625    7625.8313 0.0010608945 -0.0043194542 -0.00051070863 
   24000    2.6480802  0.023228651    28372.625    8063.7814 0.0013755708 -0.0043505744 0.0010413724 
   25000    2.6449193  0.023796968    28372.625    8510.2284 0.0015244106 -0.0018235063 0.0038665381 
   26000    2.6504974  0.023527167    28372.625    8962.3716 0.0013643723 -0.0025359356 0.0013643722 
   27000    2.6477955  0.023335387    28372.625    9393.4996 9.3207567e-05 -0.0036648624 -0.00033649059 
   28000    2.6458763  0.023486338    28372.625    9811.6454 0.0017749545 -0.0029446307 5.2071875e-05 
   29000    2.6375437  0.024640864    28372.625    10251.506 0.0018255319 -0.0009822952 -0.0029125584 
   30000    2.6529895  0.023745541    28372.625    10737.764 -0.0008503011 -0.0040184078 -0.0011708805 
   31000    2.6503557  0.024105323    28372.625    11240.983 -0.0073383079 -0.0018815631 -0.0018458732 
   32000    2.6506646  0.023679745    28372.625    11723.192 -0.0039471038 -0.00047928498 -0.0020056288 
   33000    2.6572656  0.024319798    28372.625    12232.517 -0.0033836793 0.00080866281 -0.0011223537 
   34000    2.6689366  0.023553102    28372.625    12734.967 -0.0034760637 0.0026384875 -0.00085857723 
   35000    2.6444728  0.023603382    28372.625    13212.772 -0.0053764077 -0.00028875774 -0.00022403684 
   36000    2.6567881  0.023188616    28372.625    13677.665 -0.0044779499 -0.00042376465 4.1928999e-05 
   37000    2.6457468  0.024117293    28372.625     14141.47 -0.00077568901 0.00019548527 -0.0036841062 
   38000    2.6624358   0.02369462    28372.625    14588.752 -0.0046612966 -0.0011742776 -0.0049580474 
   39000    2.6522918  0.023409594    28372.625    15032.752 -0.0033978602 0.0012535889 -0.0065973003 
   40000    2.6573405    0.0234736    28372.625    15465.115 -0.0029025587 0.00075739409 -0.0035265024 
   41000    2.6479263  0.023970191    28372.625    15918.981 -0.0041645857 0.0011143025 -0.0047857368 
   42000    2.6471254  0.023546023    28372.625    16385.696 -0.0052364385 0.0029937962 -0.0033971972 
   43000    2.6579955  0.023198268    28372.625    16868.385 -0.0060566639 0.0014439711 -0.0047147825 
   44000    2.6661764  0.023573001    28372.625    17329.391 -0.0020137819 0.0028901294 -0.0031266256 
   45000    2.6467355  0.024328169    28372.625    17794.283 -0.00048843527 0.0041135613 -0.003397933 
   46000    2.6542085  0.023620395    28372.625    18290.899 0.0022411319 0.0027781664 -0.0022265149 
   47000    2.6561436  0.023456632    28372.625    18750.575 0.0039138044 0.0026395468 -0.0036040311 
   48000     2.663251  0.023315558    28372.625    19199.824 0.0022236437 0.0021043248 -0.0021392155 
   49000    2.6455984  0.024026885    28372.625    19646.874 -0.00068817946 -0.00013749781 -0.0051923971 
   50000    2.6540361  0.023415977    28372.625    20061.351  0.003271479 -0.0020350683 -0.0034514407 
   51000    2.6543719  0.023542707    28372.625    20429.214 0.00076793669 -0.0028869627 -0.002481422 
   52000    2.6396711  0.024328918    28372.625    20815.966 -0.0018983185 -0.0033478945 -0.0036445086 
   53000    2.6514911  0.023409693    28372.625    21218.914 -0.00074076866 -0.0007994976 -0.0040318676 
   54000     2.656353  0.023388231    28372.625    21623.262 0.0014339485 -0.00077691599 -0.0025852592 
   55000    2.6452224  0.024325559    28372.625    22045.911 0.0028112584 -0.00097113462 -0.00061414755 
   56000    2.6636141  0.023688369    28372.625    22504.817 -0.0017558134 -0.00066988259 -0.0056199903 
   57000    2.6639308  0.023625075    28372.625    22945.218 -0.0011007511 0.00091370583 -0.0060560448 
   58000    2.6457124   0.02397164    28372.625     23402.43 -0.0043667926 0.00096777789 -0.0081454512 
   59000    2.6576591  0.023574697    28372.625    23871.889 -0.0035065941 0.0037658157 -0.011549362 
   60000    2.6337549  0.025817617    28372.625    24344.471 -0.00049770746 0.0090818613 -0.010986456 
   61000     2.653048  0.023492297    28372.625    24794.465 -0.0042594225 0.0016185053 -0.0063777102 
   62000     2.653802  0.023522716    28372.625    25303.967 -0.0041299965 0.0020808775 -0.0089997901 
   63000    2.6583025  0.023295333    28372.625    25836.573 -0.0041981825  0.002820104 -0.0065008598 
   64000    2.6568945  0.023675676    28372.625    26353.727 -2.3843539e-05 0.0033149791 -0.0089290147 
   65000    2.6573392   0.02400368    28372.625    26831.218 0.00027625667 0.0020353728 -0.0064077102 
   66000    2.6528739  0.024113021    28372.625     27328.82 0.00077837376 0.0016743965 -0.0078194281 
   67000    2.6544567  0.023677366    28372.625    27850.383 -0.0024230671 0.0017402968 -0.0052441318 
   68000    2.6758617  0.024206493    28372.625    28362.618 0.0011382986  0.001212809 -0.0050663241 
   69000    2.6573589  0.024315529    28372.625    28865.015   0.00188524 0.0027587168 -0.0054790978 
   70000     2.651127  0.023645947    28372.625    29354.052 0.0023851861 0.0027458881 -0.0024402188 
   71000    2.6524608  0.024036283    28372.625    29839.336 -0.00011409297  0.002075432 -0.0052212191 
   72000    2.6537283    0.0233119    28372.625    30287.731 0.0027737712 0.0022980003 0.0015538565 
   73000    2.6550758  0.023211916    28372.625    30771.673 0.0019077587 0.0013589955 0.0012920427 
   74000    2.6510673  0.023807429    28372.625    31312.864 0.0028724255 -0.00065510789 -0.00038577455 
   75000    2.6299643  0.024405599    28372.625     31856.06 0.00070851591 -0.0012278158 -0.0012990493 
   76000    2.6487641  0.024403977    28372.625    32383.053 0.00061665937 0.0046879831 -0.0012697641 
   77000    2.6524501  0.023909923    28372.625    32900.055 0.00031267287  0.008512603 0.0028454848 
   78000    2.6491228  0.023168349    28372.625    33429.447 0.00096871134 0.0074063981 0.0021381489 
   79000    2.6506847  0.023635661    28372.625    33981.774 0.0016479859 0.0071232377 0.0045036316 
   80000    2.6457124  0.023202106    28372.625    34516.083 0.0027739491 0.0070763227 0.0036295157 
   81000    2.6474088  0.023213863    28372.625    35053.638 0.00060115735 0.0063615343 0.0024807952 
   82000    2.6471172  0.024121096    28372.625    35573.789 0.00079631044 0.0038412931 -0.0018263109 
   83000    2.6631042   0.02363595    28372.625    36092.746 8.8620067e-05 0.00090914408 0.0026629882 
   84000    2.6545854  0.023128769    28372.625    36620.272 0.0034168277 0.0021594814 0.0033598977 
   85000    2.6557136  0.023435352    28372.625    37148.579 0.0029236337     -0.00134 0.00036203444 
   86000    2.6519219  0.023636168    28372.625    37739.094 0.0021713551 -0.0020220731 0.0024305013 
   87000    2.6581687  0.023298965    28372.625    38367.946 0.0035306221  0.001622938 0.0068778764 
   88000    2.6477788  0.023374125    28372.625    38964.118 0.0039583271 0.0021348874 0.0063806666 
   89000    2.6447482  0.024865323    28372.625    39526.289 0.0026829454 -0.0016216103 0.0035993791 
   90000    2.6466044  0.023605585    28372.625    40054.998 -0.0014167334 0.0015274955 0.0013797056 
   91000    2.6497899  0.023859509    28372.625    40566.106 -0.0012135289 -0.0025769498 -0.00052156051 
   92000    2.6354782  0.024722157    28372.625    41089.648 0.00060905172 0.00048785793  0.006329763 
   93000    2.6533049  0.023467734    28372.625    41618.536 0.0017605397 -0.00021795141 0.0056081868 
   94000    2.6628321  0.024065052    28372.625    42186.587 -0.0002341679 0.00044913616 0.0063320683 
   95000    2.6517065   0.02370906    28372.625    42786.574 -0.0013563376 0.00065250248  0.004290661 
   96000    2.6604052  0.023796018    28372.625     43390.41 0.0030966343 -0.0014017232  0.003598138 
   97000    2.6552207  0.024128682    28372.625    43988.028 0.0033958265 -0.0023225787 0.00027258371 
   98000    2.6510628  0.023242953    28372.625    44551.088 -0.0027910773 -0.0020662255 0.00019774901 
   99000    2.6577121  0.023591241    28372.625    45113.119 -0.0015257229 -0.003495476 0.0028749015 
  100000    2.6453128  0.023547062    28372.625     45691.18 -0.0032053416 -0.00019300634 0.0017883713 
  101000     2.656532  0.023793153    28372.625    46259.035 -0.00065824279 0.00052212523 0.0013860537 
  102000    2.6406224  0.024861557    28372.625    46798.154 -0.00054282678 -0.0016038637 0.0033058264 
  103000    2.6608018  0.023364794    28372.625    47229.647 -6.0220365e-05 0.00078860817 0.0055894418 
  104000    2.6493545  0.023165407    28372.625    47663.519 -0.0018484108 0.0033047056 0.0044359422 
  105000    2.6406989  0.023823827    28372.625    48115.953 -0.0035591615 0.0058507451 0.0040977233 
  106000    2.6372058  0.023990888    28372.625    48529.369 -0.00033066167 0.0014575979 0.0048183907 
  107000    2.6491679  0.023576374    28372.625    48911.784 -0.00048393077 0.0035864738 0.00054170964 
  108000     2.636078  0.024852833    28372.625     49286.49 -0.0031760672 0.00011879676 -0.0036609214 
  109000    2.6426041  0.023279074    28372.625    49636.074 0.00043894577 0.0028346012 0.0027255703 
  110000    2.6298903  0.025275815    28372.625    50039.622 0.0012480754 0.0057237444 0.0028352854 
  111000    2.6492834  0.023777235    28372.625    50549.354 0.0020549689 0.0026339004 0.00049525838 
  112000    2.6542774  0.024485144    28372.625    51036.955 0.0019226027 0.0014267354 0.00091743861 
  113000    2.6431719  0.023941223    28372.625    51512.628 0.0012350393 -0.0029514119 0.0023797338 
  114000    2.6431118  0.023502642    28372.625    52017.935 9.6832907e-06 -0.0046215787 0.0032003734 
  115000    2.6428285  0.023709538    28372.625    52557.496 -0.0013990803 -0.0034148333 0.0018220404 
  116000    2.6449759  0.023840599    28372.625    53124.967 0.00073029574 -0.00044407044 -0.0027819881 
  117000    2.6490756  0.023817436    28372.625    53745.811 0.0018952408 -0.0013978174 -0.0017887542 
  118000    2.6475042  0.023654228    28372.625    54412.709 0.0013164406 0.00062482424 -0.00072138749 
  119000    2.6482157  0.024482987    28372.625    55032.672 0.0029086688 0.0065343319 0.0012020816 
  120000    2.6459851  0.023927181    28372.625    55615.591 0.0066662141 0.0019660726 0.0043969662 
  121000     2.660688   0.02364109    28372.625    56199.859 0.0054364832 0.0027817101 0.0026038594 
  122000    2.6548558  0.023241869    28372.625    56755.553 0.0056010901 0.0053498825 0.00064879486 
  123000      2.66316  0.023675478    28372.625     57288.23 0.0021494876 0.0061020383 -0.0013387255 
  124000    2.6455531  0.024184118    28372.625     57858.04 0.00054306545 0.0063418271 -0.0027681993 
  125000    2.6376557  0.024412337    28372.625    58456.242 0.00080072183 0.0061118002 -0.001542531 
  126000    2.6550065  0.023539859    28372.625    58968.245 0.0037608758 0.0048204944 -0.0029987636 
  127000    2.6254998  0.025686887    28372.625    59467.091   0.00459294 0.0046498542 -0.0071163932 
  128000    2.6542543  0.023661072    28372.625    59958.436  0.007624344 0.0025107926  -0.00124319 
  129000    2.6622783  0.023505828    28372.625    60465.537  0.005822554  0.004231369 -0.00062218474 
  130000    2.6505989  0.024761195    28372.625    61055.555 0.0078134615 0.0029088067 -0.00016593622 
  131000    2.6648094   0.02342401    28372.625    61635.523 0.0076109496 0.0011351062 -6.9842582e-05 
  132000    2.6588752  0.024023472    28372.625    62199.721 0.0074456334 0.0016073211 0.0011820333 
  133000     2.658656  0.023233844    28372.625    62832.257 0.0050386458 0.0054850178 0.00033089066 
  134000    2.6568459  0.023852605    28372.625    63473.806 0.0043896107 0.0049965979 0.0003940743 
  135000    2.6536045  0.023829247    28372.625    64118.391 0.0027135407  0.001978727 0.0028629636 
  136000    2.6349744  0.025379814    28372.625     64803.49 0.00071930508 -0.00077527583 0.00019576562 
  137000    2.6632892  0.024001095    28372.625    65508.734 0.0023607223 1.0272609e-05 0.0026574058 
  138000    2.6664877  0.023570412    28372.625    66159.276 0.0014273176 0.0002478244 0.0022720309 
  139000    2.6515758  0.023147618    28372.625    66728.378 0.0027954553 0.0030096738 0.0009136521 
  140000    2.6573883  0.023425318    28372.625    67222.578 0.0019338044 0.0028878207 0.0027396554 
  141000    2.6485921  0.023765784    28372.625    67643.494 0.0035391839 0.0047232317 0.0011697908 
  142000    2.6238542  0.026038471    28372.625    68049.202 0.0074019228 0.0048445343 0.0043094297 
  143000    2.6530962  0.023578736    28372.625     68478.98  0.001001717 0.0032136308 0.0027455093 
  144000    2.6612835  0.023619385    28372.625    68951.276 0.00092766025 0.0051269073 0.0036866393 
  145000    2.6403178  0.023984381    28372.625    69464.424 -0.00015641997 0.0071933795 0.0037524237 
  146000    2.6484325  0.023702378    28372.625    70007.603 -0.00061980537 0.0069173164 0.0040849064 
  147000    2.6571975  0.024094883    28372.625     70579.88 -0.0031666823 0.0068585272 0.00046842907 
  148000    2.6408766  0.023854837    28372.625    71105.841 -0.0014311408 0.0067653167 0.0048257538 
  149000    2.6591781  0.023497829    28372.625    71641.826 -0.00049198826 0.0075873714 0.0064763968 
  150000     2.644782  0.023861303    28372.625    72127.873 0.00043851888  0.004990368 0.0065224855 
  151000    2.6480499  0.023918422    28372.625    72644.171 0.0027750391 0.0034340399 0.0040691435 
  152000    2.6458884  0.023716792    28372.625    73129.988  0.006757996 -0.00036553575 0.00073883404 
  153000    2.6400539   0.02453619    28372.625    73627.482 0.0026904192  0.003932055 0.0056475445 
  154000    2.6453699  0.024253943    28372.625    74126.169 0.0086324081 0.0051726741 0.0054005741 
  155000    2.6619068  0.023642471    28372.625    74652.866 0.0060327891   0.00285431 0.0051971309 
  156000    2.6513396  0.023277758    28372.625    75158.184 0.0045194125 -0.00037478415 0.00050909916 
  157000     2.667408  0.024054264    28372.625    75603.837 0.0032982897   0.00314606 -0.00081979556 
  158000     2.647276   0.02333087    28372.625    76013.179 0.0015657485  0.003407876 0.00079005061 
  159000      2.64157  0.023236093    28372.625    76404.502 0.0050614956 0.0012751165 -0.0015146785 
  160000    2.6593088  0.023848014    28372.625    76820.404  0.003115585 0.0018523272 -0.00050036376 
  161000    2.6507298  0.023470564    28372.625    77241.893 0.0022653479 0.0014596193 0.0011003081 
  162000     2.644265  0.023195561    28372.625     77642.48 0.0042853825 -0.00029311875 0.00037902491 
  163000    2.6470814  0.023497631    28372.625    78013.126 0.0049888015 -0.0012913042 0.0014435619 
  164000    2.6548029  0.023766285    28372.625    78465.595 0.0035790517 -0.00083123011 0.00033201128 
  165000    2.6549483  0.023542989    28372.625    78930.555 0.0051936216 -0.0024686603 -0.0015172697 
  166000    2.6454788  0.023606642    28372.625     79316.39 0.0054206177 0.0037094761 -0.0016534565 
  167000    2.6625676  0.024589942    28372.625    79701.709 0.0050077033 0.0037326412 -0.0011668981 
  168000    2.6371286  0.023427546    28372.625    80210.414 0.0033884471 0.0023747207  0.002481054 
  169000    2.6350955  0.023742921    28372.625    80639.446 0.0032840871 0.0036631213 0.00013272433 
  170000    2.6456518  0.024483829    28372.625    81064.999 0.0019867124 0.0027938714 -0.00024179472 
  171000    2.6499259  0.023928188    28372.625    81458.393  0.006107809  0.003612343 -0.0013471199 
  172000    2.6523253  0.023535825    28372.625    81811.534 0.0064898389 0.0048118079 -0.005128872 
  173000    2.6627119  0.023606408    28372.625    82161.674 0.0037749275 0.0039783373 -0.0045584585 
  174000    2.6472142  0.023618647    28372.625    82559.165 0.0021950873 0.00039216596 -0.0038855428 
  175000    2.6531802  0.023550104    28372.625    83035.561 0.0035868481 -0.00060169884 -0.0018522989 
  176000    2.6435321  0.023609995    28372.625    83488.673 -0.00049756771 0.0014625541 0.0017123448 
  177000    2.6495855  0.023828883    28372.625    83838.191  0.002320399 0.0018306134 0.0014240153 
  178000    2.6545085  0.023300671    28372.625    84215.802 0.00030347317 -0.00039830586 0.0029595765 
  179000    2.6518388  0.023508748    28372.625    84711.718 -0.00097094832 -0.0023488908 0.0022124054 
  180000    2.6596473  0.023553603    28372.625    85230.786 0.0044961977 -0.0055304402 0.0029887014 
  181000     2.644708  0.023865375    28372.625    85776.179 -0.00019380361 -0.003287142 0.0014044736 
  182000    2.6475012  0.023489762    28372.625    86318.746 -0.004154914 -0.0063004674 -0.002274775 
  183000    2.6569387  0.023134097    28372.625    86930.719 -0.005028501 -0.0065271597 -0.0049101298 
  184000    2.6494154  0.023592084    28372.625    87606.408 -0.0031388447 -0.0076206532 -0.0053331046 
  185000     2.662818  0.024184798    28372.625     88274.21 -0.0022748521 -0.004209234 -0.0037876781 
  186000    2.6473149   0.02415591    28372.625    88943.905 0.0012511371 -0.0024561475 -0.0024915511 
  187000    2.6459705  0.023624442    28372.625    89643.654 -0.00033433217 -0.0039900983 -0.002873185 
  188000    2.6396972  0.023259474    28372.625    90402.144 -0.0017993673 -0.0050883623 -0.004672495 
  189000    2.6547528  0.023589973    28372.625    91219.034 -0.0017740391 -0.0030984556 -0.0029783969 
  190000    2.6574204  0.023296667    28372.625    91998.816 -0.002102763 -0.0010637346 0.00028062334 
  191000    2.6473669  0.023632224    28372.625    92727.783 -0.00051265806 0.0027760603 0.00021584569 
  192000    2.6491758  0.023510013    28372.625    93397.327 -0.0041203089  0.002878967 -0.006060857 
  193000      2.64976   0.02328537    28372.625    94106.698 -0.0028358114 0.0051141427 -0.0066933516 
  194000    2.6366926  0.024024163    28372.625    94835.192 -0.0019523935 0.0019192427 -0.0072478503 
  195000    2.6474575  0.023526033    28372.625    95555.842 -0.0017308703 0.0020279735 -0.0034249599 
  196000     2.656442  0.023322715    28372.625    96284.326 -0.00074731726 0.0016093771 -0.0015372247 
  197000    2.6580197  0.023857367    28372.625     97046.38 -0.0040228663 -0.0023768018 -0.001363927 
  198000    2.6564121  0.023274297    28372.625    97775.587 -0.0020501093 -0.00079728793 -0.0030209812 
  199000    2.6631519  0.023876836    28372.625    98400.191 -0.0010449858 -0.00032754687 -0.0010648147 
  200000    2.6622555  0.023474545    28372.625    98968.649 -0.00084135041 0.0028818209 -0.0029276625 
  201000    2.6386185   0.02388227    28372.625    99571.369 -0.0010612954 0.0014525743 -0.001017198 
  202000    2.6569466  0.023770589    28372.625     100107.2 -0.00065746258 0.0026273245 -0.0013637081 
  203000    2.6575967  0.023294595    28372.625    100699.44 -0.00074603845 0.0021689451 -0.0013809021 
  204000    2.6624392   0.02315009    28372.625    101229.63 -0.0024676919 0.00087891838 -0.003354224 
  205000     2.667617  0.023476263    28372.625    101741.08 -0.0032882769 0.0011644264 -0.0025547441 
  206000    2.6447994  0.023743791    28372.625    102286.91 -0.0031041352 0.0012404438 -0.0044044772 
  207000    2.6649961  0.023497848    28372.625    102826.91 -0.004693752 0.0049859534 -0.0061461822 
  208000    2.6499275  0.024072825    28372.625    103389.52 -0.0064727577 0.0030449595 -0.0035687284 
  209000    2.6418029  0.024699482    28372.625    103904.79 -0.0048615705 0.0032755095 -0.0033168766 
  210000      2.64883  0.023448998    28372.625    104430.25 -0.0041993156 0.0048574547 -0.0016533964 
  211000    2.6538598  0.023952383    28372.625    104905.96 0.0007633988 0.0094177146 -0.00061243858 
  212000    2.6466938  0.024114085    28372.625    105286.17 -0.0017128452  0.004062737 -0.0013529164 
  213000    2.6392199  0.023558065    28372.625    105671.52 -0.0018776715 0.0056329067 -0.0031254746 
  214000    2.6481609  0.023669217    28372.625       106082 -0.00076308198 0.0073116168 -0.0016928782 
  215000     2.649169  0.023790673    28372.625    106519.57 0.00091571771 0.0068216915 -0.0019183558 
  216000    2.6462929  0.023141281    28372.625    106938.33 -0.0004753552 0.0067442828 -0.0045717961 
  217000    2.6397597  0.024104594    28372.625    107380.29 -0.00060095019   0.00438761 -0.0040431092 
  218000    2.6578369   0.02320928    28372.625    107773.64 -0.0021319481 0.0009542749 -0.0029248235 
  219000    2.6374814  0.023434554    28372.625    108170.34 -0.00033771405 0.0031682112 -0.00085420263 
  220000    2.6330699  0.024285165    28372.625    108530.18 -0.000804363 0.00075141369 -0.0013085973 
  221000     2.647657  0.023908878    28372.625    108784.53 0.00075007149 -0.0044592266 0.0014174519 
  222000    2.6496921  0.023223341    28372.625    108930.99 0.0012457289 -0.0026951571 9.6710638e-05 
  223000    2.6437012  0.023455546    28372.625    109083.62 0.0040872774 -0.0049545614 0.00058038694 
  224000    2.6466685  0.023603117    28372.625    109238.23 0.0052878246 -0.0026939207 -0.0010294433 
  225000    2.6475384  0.024421423    28372.625    109454.74 0.0042686267 -0.0016465703 0.00027757967 
  226000     2.627201  0.026064639    28372.625    109717.75 0.0023640953 0.0036575007 7.9799102e-05 
  227000    2.6481156  0.023857578    28372.625    109974.49 0.0065638784 0.00089088951 0.0020562818 
  228000    2.6595578  0.023489507    28372.625    110335.53  0.006660282 3.4440556e-06 0.0028513471 
  229000    2.6280477  0.025360967    28372.625    110704.92  0.009547526 0.0032242292 0.0047855062 
  230000    2.6424514  0.023789285    28372.625    111096.96 0.0065300591 0.00013943692 -0.00014633448 
  231000    2.6564937  0.023519627    28372.625    111493.67 0.0086847543 -0.00029654803 -0.0015776857 
  232000    2.6502009  0.023209597    28372.625    111939.61 0.0066332685 3.6191256e-05 -1.9792387e-06 
  233000    2.6414964  0.023688095    28372.625    112362.03 0.0055722158 -0.00021032605 -0.0015740147 
  234000    2.6504846  0.023474078    28372.625    112827.01 0.0060701012 0.00036177862 -0.0011187294 
  235000     2.648907  0.024092536    28372.625    113313.36  0.014123886 0.0057949825 0.0039422637 
  236000    2.6479608  0.024256855    28372.625    113810.44 0.0086369617 0.0030335236 -0.00044373609 
  237000    2.6406673  0.023788178    28372.625    114199.52 0.0076256865 0.0038882979 0.0020778465 
  238000    2.6510705  0.024239418    28372.625    114671.78 0.0073783586 0.00021043756 0.00074961921 
  239000    2.6455908  0.024120598    28372.625     115098.3 0.0084084441 -0.001511854 -0.00068645694 
  240000    2.6591838  0.023795382    28372.625    115572.07 0.0093377565 -0.0031461361 0.0011946422 
  241000    2.6468188   0.02325548    28372.625    116019.02 0.0091195993 -0.0022490906 0.0014429772 
  242000    2.6544035  0.023316717    28372.625    116416.95  0.009672449 -0.0042094616 -0.0018150569 
  243000    2.6503917  0.024429398    28372.625    116729.88 0.0097212153 -0.0036714642 -0.0046231159 
  244000     2.657315  0.023301476    28372.625    117045.72 0.0078652529 -0.0051775259 -0.0027944803 
  245000    2.6598068  0.023503434    28372.625    117505.64 0.0067741365 -0.0029048967 -0.0045833554 
  246000    2.6532524  0.024154458    28372.625    117955.56 0.0050399938 -0.0013407994 -0.00025257534 
  247000    2.6477626  0.024203157    28372.625    118299.51 0.0068178175 0.0019518596 -0.003524237 
  248000    2.6685171  0.024043206    28372.625    118705.41 0.0084763032 -0.0013254082 -0.0019458678 
  249000    2.6554202  0.023265644    28372.625    119216.54 0.0077135328 0.0019071155 -8.1975667e-05 
  250000    2.6370498  0.024143671    28372.625    119722.64 0.0036679616 -0.0012472107 0.0031966595 
  251000    2.6572923    0.0236539    28372.625    120177.14 0.0074830559 0.0035335117 9.104833e-05 
  252000    2.6476801  0.023477416    28372.625    120745.98  0.010745678 0.0012933174 0.0012223635 
  253000     2.654273  0.023483833    28372.625    121312.69  0.010633671 0.0007817054 0.0028234079 
  254000    2.6486266  0.023629374    28372.625    121825.18 0.0091458573 -0.00027718265 0.00078225014 
  255000    2.6519136  0.024125734    28372.625    122377.92 0.0068163584 -0.0016516016 0.0012971445 
  256000    2.6486002  0.023118485    28372.625    122862.27 0.0071746278 0.00027262206 0.00044304463 
  257000    2.6463717  0.023647903    28372.625    123408.08  0.005813373 0.0021503651 0.00038086957 
  258000    2.6398241  0.025207918    28372.625     124038.7 0.0026474399 0.0046355735  0.003753258 
  259000    2.6532078  0.023498351    28372.625    124655.51 0.0039087659 0.0015254183 -9.954311e-05 
  260000    2.6414662  0.023813687    28372.625    125245.22 0.0025623589 0.00078593056 -0.0005503456 
  261000     2.657314  0.023984111    28372.625    125879.61 0.0039572469 0.0035123713 0.00038967209 
  262000    2.6572492  0.024464489    28372.625    126375.82 0.0006370709 0.0023028057 -0.0030949753 
  263000    2.6580735   0.02348198    28372.625    126757.49 -0.0018174068 0.0021649157 -0.0016237507 
  264000    2.6596334  0.023818243    28372.625    126994.51 -0.0027643959 -0.00083855048 -0.0012266585 
  265000    2.6572507  0.023297165    28372.625    127216.73 -0.00020502144 0.0029094769 -0.00068355937 
  266000    2.6420645  0.023305253    28372.625    127427.83 0.0006405689 0.0013396609 -0.00051844557 
  267000     2.660399  0.024327129    28372.625    127559.63 0.00083419774 0.0020897422 -0.00094549549 
  268000    2.6455074  0.023915895    28372.625    127655.08 0.0018734828 0.00088433419 -0.00065548766 
  269000    2.6534339  0.023573009    28372.625    127777.18 0.00082748732 -0.00097216849 0.0024242516 
  270000    2.6566455   0.02336299    28372.625    127906.63 0.00063620549 -0.0015548602 0.0017201906 
  271000    2.6508638  0.023494841    28372.625    127970.21   0.00317325 -0.0034548713 -0.001338366 
  272000    2.6625046  0.023609313    28372.625    128099.86 0.0013665962 -0.0027440834 0.00094938642 
  273000    2.6636072  0.024293304    28372.625     128260.5  0.004963982 -0.0021887918 -0.0023920541 
  274000    2.6465723  0.024119175    28372.625    128397.55 0.0069432251 0.00065647901  -0.00230579 
  275000    2.6547953  0.023824289    28372.625    128569.72 0.0092354952 0.0018010999 -0.0030140168 
  276000    2.6494277  0.023306286    28372.625    128754.61 0.0069401885 -0.00056879941 -0.0033785663 
  277000    2.6543492  0.024912816    28372.625    128995.57 0.0078946353 -0.00059323598 -0.0034531763 
  278000    2.6596031  0.024247273    28372.625    129316.84 0.0074385947 -0.00054274492 -0.0034503923 
  279000    2.6497338  0.023980656    28372.625    129675.53 0.0083647973 0.0017425838 -0.0037176732 
  280000    2.6567147  0.023254189    28372.625     130004.6 0.0089365503 0.0033645291  -0.00151936 
  281000    2.6398191  0.023807997    28372.625    130329.95 0.0082276648 0.0022005172 -0.0028472696 
  282000    2.6409007  0.023289877    28372.625    130679.17 0.0075737189 0.0028371769 -0.0014665746 
  283000    2.6530092  0.023558533    28372.625    131088.49 0.0082117664 -0.00015730256 0.00016918004 
  284000    2.6529944   0.02337414    28372.625    131578.92 0.0091038988 0.00091512177 0.00021287124 
  285000    2.6590173  0.023782151    28372.625    132073.91 0.0097052853 -0.00081162051 0.00073420473 
  286000    2.6597752  0.024112231    28372.625    132564.28 0.0091743343 0.00055310486 0.0016560343 
  287000    2.6401193  0.023726608    28372.625    133055.15 0.0082287495 0.0013319276 0.0030642606 
  288000    2.6510174  0.023811725    28372.625    133540.04 0.0056317046 -0.0030876387  0.001722445 
  289000    2.6506585  0.023583977    28372.625    134020.43  0.002926213 -0.0027206618 0.0033771947 
  290000    2.6769692   0.02369459    28372.625    134534.94 0.0034346264 0.00069187198 0.0010855283 
  291000    2.6566568  0.023526355    28372.625    135058.37 0.00050551816 -0.0017421196 -0.00056187893 
  292000    2.6512273  0.024135692    28372.625    135710.74  0.002843945 -0.00085827051 -0.00088252685 
  293000    2.6489789  0.024005664    28372.625    136377.32 0.0059839947  0.001252053 0.00023182177 
  294000    2.6624346  0.023414943    28372.625    137063.71 0.0058971775 -0.0011477278 0.0011324988 
  295000    2.6489159  0.023159556    28372.625    137774.04 0.0062065544 -0.0017023129 0.0017330119 
  296000    2.6501683   0.02320305    28372.625     138423.8 0.0070284073 0.0002897145 0.0017703385 
  297000     2.652256  0.023234259    28372.625    139060.31 0.0069911506 0.0012662992 0.0012771068 
  298000    2.6631111  0.023663677    28372.625    139780.16 0.0088002282 0.0012979297 0.00029394426 
  299000    2.6415448  0.024652121    28372.625    140438.58 0.0094079579 0.0011400503 -0.00043562003 
  300000    2.6412516  0.023650719    28372.625    141122.61 0.0086959259 0.0061533834 0.0032306993 
  301000    2.6558248  0.023693845    28372.625    141787.38 0.0085474896 0.0038954899 0.00086755982 
  302000    2.6525021  0.023124081    28372.625    142343.88 0.0049403337 0.0072711187 0.00035917819 
  303000    2.6545445  0.023491061    28372.625    142834.06 0.0029558757 0.0089497823 -0.0010088387 
  304000    2.6545044  0.023182342    28372.625    143295.48 0.0033333594 0.0074246348 -0.00049260561 
  305000    2.6628573  0.023056737    28372.625    143843.23 0.0020050511 0.0069422638 -0.0016380562 
  306000    2.6626683  0.023938775    28372.625    144384.73  0.001279631 0.0048799491 0.0025029727 
  307000    2.6678501  0.024243374    28372.625    145011.76  0.001094788 0.0034150042 0.0036342221 
  308000    2.6589914  0.023421333    28372.625    145570.38 -0.00065743745 0.0008725751 0.0022129233 
  309000    2.6414672  0.024348875    28372.625    146137.85 -0.0022351809 0.0029269633 0.0012189792 
  310000    2.6469366  0.023687479    28372.625    146744.48 0.00038456621 0.0042783839 0.0022811722 
  311000    2.6435253  0.024829466    28372.625    147340.47 -0.0028525527 0.0043682519 0.0032484332 
  312000    2.6420311  0.023498056    28372.625    148014.96 -0.0017605795 0.0030768228 0.0013426781 
  313000    2.6582257  0.023997444    28372.625     148776.8 -0.0024787309 0.0036622805 -0.0009249509 
  314000    2.6561853  0.023493689    28372.625    149528.25 -0.0020820287 0.0029805616 -0.0013398076 
  315000    2.6507465  0.023525456    28372.625    150235.04 -0.0043713655 0.0031035664 0.0011304302 
  316000    2.6522729  0.023453573    28372.625    150900.68 -0.0037911728 0.0044594398 0.00028356837 
  317000    2.6457744  0.023434479    28372.625    151551.53 9.9199108e-05 0.0018531448 -0.0028742293 
  318000    2.6643427  0.023708884    28372.625    152223.42 0.00044943402 0.0034365203 -0.0040329742 
  319000    2.6509148  0.023168916    28372.625    152872.93 0.00068828277 0.0051108573 -0.0028635092 
  320000    2.6478516  0.023499962    28372.625     153428.3 -0.00020774129 0.0017245608 -0.0024447674 
  321000    2.6428634  0.023246068    28372.625    153929.57 0.00096306454 0.0014269158 -0.0026254512 
  322000    2.6464974  0.023629307    28372.625    154395.88 0.0019029055 0.0023747177 -0.0039074129 
  323000    2.6520885  0.023412291    28372.625    154817.84 0.0043678694 -0.00064501232 -0.0041555399 
  324000    2.6463029  0.023531647    28372.625    155222.73 0.0060864837 0.0017459521 -0.0048780979 
  325000    2.6503272  0.023793603    28372.625    155618.76 0.0060580473 0.0014526711 -0.0073171924 
  326000    2.6487053  0.023342224    28372.625    156064.75 0.0046006135 -0.00017502908 -0.0060672115 
  327000    2.6451234  0.024084471    28372.625    156529.72 0.0035213974 -0.0022973283 0.00030047815 
  328000    2.6484363  0.024208178    28372.625    156972.72 -0.00090115386 -0.0036073601 -0.0020579623 
  329000    2.6482372  0.023297765    28372.625     157378.7 -0.0012265593 -0.004959948 -0.00072202048 
  330000    2.6381235  0.023533554    28372.625    157802.22 -0.0015692437 -0.0020634968 -0.0026586791 
  331000    2.6559586  0.023710526    28372.625    158298.35 -0.00094437829 -0.0019788753 -0.0020037159 
  332000    2.6422947  0.023867243    28372.625    158852.83 -0.0028061501 0.00042508783 -0.0014971899 
  333000    2.6419187  0.023484909    28372.625    159424.56 -0.00078001591 2.9441538e-05 0.0014105523 
  334000    2.6481524  0.023787751    28372.625    160024.99 -0.0011600824 -0.00055603083 0.0013868667 
  335000    2.6356029  0.024731158    28372.625    160637.93 -0.0056946706 -0.00064978647 0.00099393893 
  336000    2.6490185  0.024216303    28372.625    161238.76 -0.0069064279 0.0038778403 -0.0034557909 
  337000    2.6424865  0.023270564    28372.625    161962.01 -0.0067971639 -0.00013944201 -0.0025449173 
  338000    2.6511599   0.02378448    28372.625    162657.85 -0.0065617277 -0.00036141484 -0.0035225406 
  339000    2.6571375  0.023211761    28372.625    163299.06 -0.0050654441 -0.0014784744 -0.001387526 
  340000    2.6565161  0.023156881    28372.625    163944.63 -0.0029669526 -0.0014019617 -0.0011709583 
  341000    2.6576349  0.024268409    28372.625     164587.4 -0.0045838098 -0.0012472191 -0.0017926677 
  342000    2.6627622  0.024966111    28372.625    165151.17 -0.0035824077 -0.0011856014 -0.0034798079 
  343000    2.6486541  0.023226732    28372.625    165665.88 -0.0016405045 0.00031463645 -0.002039928 
  344000    2.6447079  0.023387565    28372.625    166167.77  0.001380919 -7.7968585e-06 -0.0009058118 
  345000    2.6521858  0.023948957    28372.625    166683.29 0.0023570561 -0.00057153059 -0.0046713599 
  346000    2.6504464  0.024079561    28372.625    167196.97  0.002894907 0.00096262478 -0.0059756714 
  347000    2.6553809  0.023309984    28372.625    167682.19 0.0011130952 -0.00031305162 -0.0058120917 
  348000    2.6544659  0.023536432    28372.625    168168.51 -0.00071930412 -0.002166957 -0.0089184195 
  349000    2.6443422  0.023214068    28372.625     168648.1 -0.0006451245 -0.0010448907 -0.0087170668 
  350000    2.6482021  0.023849046    28372.625    169091.88 -0.0037341247 0.00029103353 -0.0087103806 
  351000    2.6448538  0.023229739    28372.625    169517.68 -0.0036250325 -0.00028379313 -0.0060902678 
  352000    2.6539117  0.025062464    28372.625    169913.85 0.00093441862 0.0010470882 -0.0063663727 
  353000    2.6580293  0.023434465    28372.625    170349.34 -0.0044914876 -0.0014894938 -0.0057913268 
  354000    2.6543785  0.024095836    28372.625    170736.14 -0.002702509 -0.0025947645 -0.0034345332 
  355000    2.6644635  0.023735494    28372.625    171071.28 -0.0029559711 -0.00063857277 -0.0036480025 
  356000    2.6610969  0.024114035    28372.625    171477.75 -0.0031021924 -0.0035659514 -0.0040628959 
  357000    2.6627164  0.023619398    28372.625     171802.2 -0.0054621946  -0.00295989 -0.0042780186 
  358000    2.6507712  0.024307704    28372.625     172114.9 -0.0045953015 -0.0006687171 -0.0051728401 
  359000    2.6456571  0.023155266    28372.625    172362.29 -0.0046479027 -0.00025114592 -0.0040455803 
  360000    2.6460944  0.024363857    28372.625       172711 -0.0032721147 -0.00086320213  -0.00339296 
  361000    2.6620774  0.023266857    28372.625    173263.44 -0.0049984962 0.00017610513 -0.0016267749 
  362000    2.6474659  0.023815205    28372.625    173881.74 -0.0081656293 0.0019180854 -0.001014965 
  363000    2.6491855  0.023448673    28372.625    174477.84 -0.0039176991 0.0016529665 -0.00019361065 
  364000    2.6490015  0.023629211    28372.625    175008.09 -0.0051975994 0.0013202749 -0.0022612533 
  365000    2.6489174  0.023729493    28372.625    175497.12 -0.0026763873 -0.0022892946 -0.00086339001 
  366000    2.6573594  0.024108738    28372.625     176055.6 -0.0021263034 0.00023396574 -0.0004489163 
  367000    2.6439389  0.024561303    28372.625     176584.3 -0.0071582537 -0.0014589229 0.00049310298 
  368000    2.6513119  0.023932534    28372.625    177106.42 -0.0073904808 -0.0013904001 -0.0019327737 
  369000    2.6501945  0.023489065    28372.625    177700.47 -0.0065603684 -0.0045052419 -0.0030033754 
  370000    2.6506307  0.024181114    28372.625    178247.69 -0.0015818405 -0.0027580444 -0.00055922994 
  371000    2.6422887  0.023214563    28372.625    178722.04 -0.0038595985 -0.0056384978 -0.0011404122 
  372000    2.6486506  0.023299505    28372.625     179154.4 -0.003229374 -0.0040580073 0.00079033708 
  373000    2.6414106  0.023327058    28372.625    179561.45 -0.0034792629 -0.00075245644 0.0012067321 
  374000    2.6503093  0.023686853    28372.625    179961.78 -0.0029664804 -0.0001368344 0.00080150943 
  375000    2.6522656  0.023654664    28372.625    180307.71 -0.0034968783 -0.002291153 0.0011380466 
  376000    2.6547216  0.023514489    28372.625     180648.4 -0.0015738415 -0.00011355498 -0.0021152241 
  377000     2.643683  0.023552292    28372.625    181154.82 0.00029997569 -8.8101662e-05 -0.0021844385 
  378000    2.6623644   0.02450782    28372.625    181704.89  0.001733457 -0.0035699867 -0.0016292135 
  379000    2.6535578  0.023602098    28372.625    182202.85  0.002695539 -0.0042807075 -0.0036394111 
  380000    2.6587157  0.023332202    28372.625    182718.55 0.0019055271 -0.0020639874 -0.0039584168 
  381000    2.6526223  0.023478598    28372.625    183209.23 0.0036231983 -0.0017158946 -0.0057581635 
  382000    2.6603378  0.023839188    28372.625    183628.14 -0.0030750992 -0.010606064 -0.0054319436 
  383000      2.65615  0.023204987    28372.625     184000.5 -0.0011067285 -0.0077132888 -0.0070710974 
  384000    2.6682017  0.023720412    28372.625    184376.98 0.0011952088 -0.0073079915 -0.0072216395 
  385000    2.6488735  0.024576595    28372.625    184652.05 0.00081642409 -0.0059981595 -0.0075565669 
  386000    2.6588018  0.023551978    28372.625    184914.89 0.0010354172 -0.0050751316 -0.0045043467 
  387000     2.657926  0.023306642    28372.625     185102.7 -0.0005893065 -0.00066260138 -0.0030246714 
  388000    2.6553543  0.023833744    28372.625    185270.58 0.0017868849 -0.0002123218 -0.0048510468 
  389000    2.6534094   0.02378032    28372.625    185286.41 0.00022865583 -0.0026631424 -0.0052241292 
  390000    2.6602348  0.023840629    28372.625    185130.23 -0.0037438373 -0.0013505887 -0.0022996474 
  391000    2.6581358  0.023323978    28372.625    185094.57 -0.0019627402  0.001680721 -0.0029894239 
  392000    2.6518129  0.023492536    28372.625    185211.44 -0.0037465415 -0.00076588435 -0.0049185098 
  393000    2.6527346   0.02364647    28372.625    185210.19 0.00090195632 -0.00079609881 -0.0030569988 
  394000    2.6500476  0.023372249    28372.625    185216.87 0.0016330491 -0.0026014684 -0.0040358437 
  395000    2.6607943  0.023481484    28372.625    185229.88  0.001355049 2.6942643e-05 -0.0059531393 
  396000    2.6585235  0.024161216    28372.625       185196 -0.00081607579 -0.002864264 -0.0079312556 
  397000    2.6547785  0.023551156    28372.625    185072.89 0.0012730559 0.00081082297 -0.0069034838 
  398000     2.644768   0.02324019    28372.625    184827.51  0.001429945 -0.00060866568 -0.0053396593 
  399000    2.6446526  0.023710029    28372.625    184605.35 0.0021294535 0.00068004905 -0.0040711353 
  400000    2.6518608  0.023798554    28372.625    184433.13 0.0030761118 -0.001255228 -0.0044069795 
  401000    2.6605082  0.023653998    28372.625    184270.14 0.0019944716 -0.0012318661 -0.0039016849 
  402000    2.6330016  0.024428053    28372.625    184163.97 0.00039105096 -0.0037804337 -0.0028175784 
  403000    2.6522419  0.023397417    28372.625    184156.18 0.0012989817 -0.0018080378 -0.0050774513 
  404000    2.6413108  0.024872027    28372.625    184143.57  -0.00135241 0.0013313392 -0.0052146547 
  405000    2.6438434  0.023263522    28372.625    184169.56 -0.00047487326 0.0015486285 -0.0035085391 
  406000    2.6253027   0.02525683    28372.625    184208.01 -0.0045210142 -0.00094464217 -0.0031346076 
  407000    2.6452564  0.023338577    28372.625    184177.71 -0.0032113158 -0.002976158  0.000412708 
  408000    2.6588407   0.02319006    28372.625    184120.07 -0.0040642048 -0.0034868049 0.0018827622 
  409000    2.6383172  0.024558537    28372.625    184134.82 -0.0024315142  0.007908189 0.0052175628 
  410000    2.6598574  0.023404798    28372.625    184285.68 -0.0027821969 -0.0043208971 0.0034179182 
  411000    2.6554071  0.023423116    28372.625    184553.57 -0.0029998197 -0.0050416373 0.0029017643 
  412000    2.6620338  0.023288686    28372.625    184803.28 -0.0043415562 -0.004020778   0.00293209 
  413000    2.6564018   0.02342377    28372.625    184958.18 -0.0050505205 -0.0040361461 0.0041647065 
  414000    2.6562116  0.023572979    28372.625     185108.5 -0.0014673598 -0.0069188726 -5.6711909e-05 
  415000    2.6528132  0.023743839    28372.625    185292.36 0.0013170779 -0.0010898466 0.0022553499 
  416000    2.6394753  0.025016815    28372.625    185562.79 -0.007659547 0.0035366908 -0.0055095972 
  417000    2.6676059  0.023435665    28372.625    185800.97 -0.0017640103 -0.0023950993 0.0025826887 
  418000    2.6563272  0.023265051    28372.625     185979.4 -0.0025272058 -0.0032563757 0.00052339418 
  419000    2.6499096  0.023331905    28372.625    186066.62 -0.0030365317 -0.0027720022 0.0030823512 
  420000    2.6461642  0.024678083    28372.625    186095.08 0.00023510487 -0.0069256754 -0.0013797249 
  421000    2.6506239  0.023987785    28372.625    186198.99 0.0020570679 -0.0014798163 0.0019973274 
  422000    2.6386694   0.02513842    28372.625    186338.16 0.0063218266 -0.0058633943 0.0011831087 
  423000    2.6549573  0.023786408    28372.625    186613.03 -0.0038360098 -0.0033252317 0.0026152569 
  424000    2.6429114  0.023460283    28372.625    186841.14 -0.0027158703 -0.0033221346 0.0048286429 
  425000    2.6282084  0.025966032    28372.625     187130.7 0.00084447443 -0.0067480134  0.007802259 
  426000    2.6310156  0.024315395    28372.625    187384.44 -0.00099887675  -0.00458547 0.0046594188 
  427000    2.6570337  0.023925267    28372.625    187584.99 -0.0017544442 -0.0043808378 0.0046678201 
  428000    2.6352779  0.024396299    28372.625     187895.3 -0.0026611308 -0.003687313 0.0030200195 
  429000    2.6497586  0.023387237    28372.625    188251.63 -0.0034225299 -0.0075831258 -0.0014772208 
  430000    2.6461969  0.023404689    28372.625     188633.3 -0.00097004472 -0.0068586774 -0.0012631472 
  431000    2.6287489  0.024807072    28372.625    189031.23 0.0040398134 -0.0059762149 0.00010088754 
  432000    2.6512602  0.023486198    28372.625    189414.07 0.0019913485 -0.0059070652 -0.00085712829 
  433000    2.6476264  0.023172248    28372.625    189711.48 6.2776281e-06 -0.0055475674 -0.0031065557 
  434000    2.6461047  0.023362056    28372.625    189959.17 0.00086753931 -0.0055290192 -0.0054677481 
  435000     2.651492  0.024152452    28372.625    190252.07 0.0032354994 -0.0035063798 -0.0021717212 
  436000    2.6496216  0.023301921    28372.625    190595.48  0.004391048 -0.0041845009 0.0015063555 
  437000    2.6506605  0.023302608    28372.625    190947.49 0.0019148525 -0.0071711392 0.0019841988 
  438000    2.6589394  0.023378882    28372.625    191376.25 0.0034079036 -0.0080109377 0.0011082091 
  439000    2.6575187   0.02356684    28372.625    191775.54 0.0069774741 -0.0096508229 0.0013046134 
  440000    2.6455887  0.023194322    28372.625    192151.62 0.0030848092 -0.0067276806 0.00078470386 
  441000    2.6563661  0.023502454    28372.625     192673.9 0.0039034434 -0.0070802946 -0.00044600964 
  442000    2.6443379  0.023399275    28372.625    193098.75 0.0033647348 -0.0088398785 -0.0003710041 
  443000    2.6618227  0.023475432    28372.625    193400.34 0.0058559067 -0.009447627 -0.0016367883 
  444000    2.6478425  0.023928856    28372.625    193699.36 0.0087998721  -0.01060751 0.00043226943 
  445000    2.6559506  0.024189474    28372.625    194004.38 0.0061471248 -0.011195523 -0.00015168886 
  446000    2.6510477  0.023404049    28372.625    194351.89 0.0057641247  -0.01105064 -0.0014058805 
  447000    2.6498532  0.024060753    28372.625    194718.61 0.0030039885 -0.010122068 -0.001375419 
  448000    2.6430475  0.024796587    28372.625    195173.14   0.00369029 -0.015587054 -0.0022389247 
  449000     2.654273   0.02370376    28372.625    195614.94 0.00062271033 -0.0092219674 -0.0023809983 
  450000    2.6763273  0.023893519    28372.625    196135.46 0.0034439753 -0.011147719 -0.0036603387 
  451000    2.6505275  0.023594936    28372.625    196716.19 -0.0025413967 -0.0095479451 -0.0034490096 
  452000    2.6556813  0.023404504    28372.625    197394.99 -0.0052854728  -0.01053419 0.0013980131 
  453000    2.6509032  0.023800314    28372.625     197978.2 -0.0074360453 -0.010562156 -0.0014906663 
  454000    2.6648772  0.023646639    28372.625    198585.37 -0.0046949344 -0.0067303228 0.00062508375 
  455000     2.650038  0.023324183    28372.625    199142.08 -0.0028985171 -0.0056159324 0.0022956598 
  456000    2.6561105  0.023640928    28372.625    199588.67 -0.0011424986 0.00058182948 -0.0011541975 
  457000    2.6586496   0.02401022    28372.625    200034.54 -0.0025696443 -0.0027242689 0.0011600444 
  458000    2.6546312  0.023454797    28372.625    200495.41 -0.0011058824 -0.0036595905 0.0020110086 
  459000    2.6534256   0.02442366    28372.625    201073.39 -7.0974862e-05 -0.0043273222 -0.00095626077 
  460000    2.6429142  0.023330319    28372.625    201585.47 -0.00086208181 -0.0034684068 0.0005397063 
  461000    2.6674514  0.024716129    28372.625    202067.28 -0.00074664647 -0.003536853 0.00050119218 
  462000    2.6654419  0.023696396    28372.625    202486.44 0.0033341836 0.00010764105 -0.0026134748 
  463000    2.6604433  0.023342188    28372.625    202871.95 0.0022832299 0.0021705014 -0.0036368003 
  464000    2.6557454   0.02330199    28372.625    203314.78 0.0030849199 5.8685038e-05 -0.0003156269 
  465000    2.6436273  0.023969922    28372.625    203797.52  0.002493528 -0.00053937156 0.0013016381 
  466000    2.6518539  0.023253155    28372.625    204179.76 0.0072633416 -0.00038830093 0.0018353327 
  467000    2.6508163  0.023255823    28372.625    204671.15 0.0034386218 0.0016712488 0.00053356064 
  468000    2.6419287  0.023594397    28372.625    205195.87 0.0013506663  0.003707258 -0.0011547338 
  469000    2.6529708  0.023681648    28372.625    205678.35 -0.00032395831 0.0033690915 0.0011664231 
  470000    2.6603116  0.023522443    28372.625    206194.01 0.0022333095 0.0025311716 0.0013552467 
  471000     2.655597  0.023600985    28372.625    206595.56 0.0032934121 0.0027672907 0.00029430931 
  472000    2.6475449  0.023337055    28372.625    206945.15 0.0049593871 0.0064362621 0.0041768244 
  473000    2.6388834  0.024030841    28372.625    207337.97 0.0028707168 0.0054959404 0.0007931599 
  474000    2.6539853    0.0231697    28372.625    207800.41 0.0038126886 0.0016781367  0.002089341 
  475000    2.6627512  0.023249145    28372.625    208248.43 0.0071797341 0.0023539921 0.0058044776 
  476000    2.6567845  0.023556642    28372.625       208676 0.0067445226 0.00063447894 0.0061324733 
  477000    2.6555638  0.023703429    28372.625    209083.83 0.0021672251 -6.1676253e-05 0.0058119122 
  478000    2.6491827  0.023407566    28372.625    209448.27   0.00255413 0.00029161556 0.0061083743 
  479000    2.6550852  0.023378869    28372.625    209784.35 0.0028734553 -0.00022914306 0.0059719225 
  480000    2.6510275  0.023221689    28372.625    210144.77 0.0055986381 -0.0003405497 0.0089710497 
  481000    2.6696959  0.023491982    28372.625    210655.48 0.0041750335 0.0021408306 0.0084487199 
  482000    2.6457473   0.02326101    28372.625    211113.67 0.0027236381 0.00048425023 0.0048585004 
  483000     2.648486  0.023745981    28372.625    211662.62 0.0034389675 0.0010615076 0.0031528103 
  484000    2.6536071  0.023616076    28372.625     212188.2 -0.0017179653   0.00159134 0.0011135258 
  485000    2.6418343  0.024191017    28372.625    212814.21 -0.0006096168 -0.0019681095 0.0018117671 
  486000    2.6484666  0.023866338    28372.625    213359.68 -0.0049771236 0.00035200901 -0.0034400836 
  487000    2.6469327  0.023728641    28372.625    213778.18 -0.006462931 0.0019992666 -0.0010547713 
  488000    2.6580186  0.023618323    28372.625    214233.26 -0.0074610719 0.0020859357 -0.0025889111 
  489000    2.6567195  0.024284307    28372.625     214770.9 -0.0060559853 0.0016476135 -0.0031633471 
  490000    2.6490698  0.024133694    28372.625    215310.61 -0.0053481888 -0.00070655291 -0.0039039838 
  491000    2.6449296  0.023914738    28372.625    215864.96 -0.00043055127 -0.0024306513 -0.006753739 
  492000    2.6474417  0.023338005    28372.625    216460.57 -0.0027054566 -0.00010217146 -0.0032017145 
  493000    2.6695438  0.023491735    28372.625    217057.91 -0.0038642547   0.00277849 -0.0019332464 
  494000    2.6538616  0.023650865    28372.625     217636.6 -0.0015816428 0.0016463231 -0.0045067954 
  495000    2.6493277  0.023694545    28372.625    218173.99 -0.005397239  0.002222142 -0.0054233825 
  496000    2.6489927  0.023592435    28372.625    218675.48  -0.00395051 0.00068394009 -0.0034942621 
  497000    2.6585265  0.023604545    28372.625    219163.41 -0.0036766371 0.0017114379 -0.00093206782 
  498000    2.6600109  0.024211069    28372.625    219630.41 -0.002491428 0.0021413992 0.00049627539 
  499000    2.6544522  0.023995331    28372.625    220112.62 -0.0043502384 0.00061355312 -0.0026000156 
  500000    2.6422008  0.023998066    28372.625    220521.15 0.00032340066 -0.0032821791 0.0020194619 
  501000    2.6504937  0.023135254    28372.625    220935.47 -0.0028805014 -6.6735036e-05 0.00027239489 
  502000    2.6432866  0.023306252    28372.625     221390.3 -0.0028371043 0.0014596192 0.0046185482 
  503000     2.644524  0.023350237    28372.625    221853.76 -0.0011023395 -0.00052312463 0.0026343048 
  504000    2.6510918  0.023762475    28372.625    222312.16  -0.00200649 -0.0015339141 9.6945292e-05 
  505000    2.6540436  0.023402328    28372.625    222858.28 -0.0012336812 0.0014235894 3.7332738e-05 
  506000    2.6415621  0.024220546    28372.625    223391.41 0.00043470305 0.00052990091  0.002008816 
  507000    2.6563787  0.023871469    28372.625    223900.14  0.002294591 0.0015979962 0.0045103486 
  508000    2.6539669    0.0234613    28372.625    224458.11 -0.00074200389 0.0019732892  0.003136203 
  509000    2.6352616  0.024646616    28372.625     224952.8 0.00010504538 0.0017789174 0.0012622496 
  510000     2.651441  0.023575743    28372.625    225400.82 -0.0016158837 0.0026960884 0.0029706171 
  511000    2.6389957  0.023675425    28372.625    225727.38 -0.0039841695 0.0012461133 0.0051443175 
  512000    2.6509475  0.024159291    28372.625    225966.44 -0.0032790688 0.0058581018 0.0072807581 
  513000    2.6697133  0.024124483    28372.625    226240.38 0.00019856329 0.0052306573 0.0071991746 
  514000    2.6421302  0.023338691    28372.625    226530.45 0.0021282842 0.0039250386 0.0055781841 
  515000    2.6512953  0.023799937    28372.625    226755.45 0.00071276905 0.0037644203 0.0052128898 
  516000    2.6571081  0.023326755    28372.625    226966.98 0.00099222789 0.0031145239 0.0090190114 
  517000     2.650086  0.024331475    28372.625    227128.57 0.00065102868 0.0055849976 0.0052061822 
  518000    2.6699827   0.02388997    28372.625    227322.51 -0.003485232 0.0015233173 0.0062705499 
  519000    2.6514011  0.023818194    28372.625    227485.43 -0.0036451301 0.0021799077   0.00527924 
  520000    2.6663247   0.02352821    28372.625    227554.82 -0.0043031028 0.0025132184 0.0057057511 
  521000    2.6549384   0.02304118    28372.625    227763.17 -0.0043692409 0.0011646695 0.0074154095 
  522000    2.6416066  0.023601685    28372.625    227890.64 -0.005327917 0.00014020444  0.005292888 
  523000    2.6568804  0.023815266    28372.625    227882.47 -0.0073509122 0.00064131664 0.0059821874 
  524000    2.6512429   0.02380177    28372.625    227834.82 -0.0048797039 0.0001589403 0.0040562565 
  525000    2.6570001  0.023532629    28372.625    227854.08 -0.0030727832 0.0011070845  0.004060576 
  526000    2.6665338   0.02381734    28372.625    227938.86 -0.0028124874 0.0023229305 0.0063327472 
  527000    2.6443088  0.023475764    28372.625     228056.2 -0.0028173298  0.002285086 0.0070061896 
  528000    2.6579585  0.023398398    28372.625    228279.85 -0.0026494227 0.0048023623 0.0046737597 
  529000    2.6360203  0.023969182    28372.625    228508.44 -0.0003032211 0.0051094548 0.0044273135 
  530000     2.638863  0.024529415    28372.625    228744.89 -0.00092355436 0.0029473318 0.0006700593 
  531000    2.6509492  0.023753334    28372.625    229085.74 0.00023859139 0.0033206602 0.0003067054 
  532000    2.6406543  0.023241944    28372.625    229468.33 -0.0014368041 0.0027835562 -0.00094571737 
  533000    2.6426034   0.02398656    28372.625    229965.41 -0.004826014 0.0058196462 0.0030701696 
  534000    2.6441488  0.024161556    28372.625    230481.96 -0.0016819629 0.0064762387 -0.0049083898 
  535000    2.6357058  0.024149819    28372.625     231013.7 0.0043535667 0.0071677924 -0.0022797457 
  536000    2.6442149  0.024190426    28372.625    231661.83 0.0017841485  0.010000573 -0.0016798586 
  537000     2.649582  0.023812813    28372.625    232333.57  0.001357756 0.0038807596 -0.0025549738 
  538000    2.6327666    0.0239287    28372.625    232979.55 -0.00064160451 0.0029677697 -0.0036566769 
  539000     2.656411  0.024515061    28372.625    233666.82 0.00078487234 0.0052577096 -0.003120432 
  540000    2.6473019  0.023477575    28372.625    234307.16 -0.0016306656 0.0061416838 -0.00012565745 
  541000    2.6550168  0.023954192    28372.625     234955.9 -0.0034346655 0.0028314372 -0.0022775763 
  542000    2.6455024   0.02309674    28372.625    235575.76 -0.0057480595 0.0042882041 -0.00082277178 
  543000    2.6498855  0.024146256    28372.625    236086.72 -0.0037612716 0.0042141337 0.0027064442 
  544000    2.6606324  0.023698941    28372.625     236632.1 -0.003517056 0.0040014262 -0.0013624097 
  545000    2.6532293  0.023609359    28372.625    237169.38 -0.0022957683 0.0043590848 -0.0038012886 
  546000    2.6257425  0.024296721    28372.625    237759.62 -0.0017658534 0.0045731014 -0.0020391631 
  547000    2.6502591  0.023260795    28372.625    238376.23 -0.0007574007 0.0037459747 0.0010692228 
  548000    2.6424103  0.024546813    28372.625    238877.91 -0.0023757283 0.0030939189 -6.4512145e-05 
  549000    2.6601083  0.023380723    28372.625    239443.71 0.0046215666 0.0039776694 0.00048045457 
  550000     2.653705  0.023522746    28372.625    240007.75 0.0031816037 0.0044774759  0.002064965 
  551000    2.6461052  0.023749946    28372.625    240561.94 0.0043791161 0.0035695502 0.0044324739 
  552000    2.6471643   0.02478193    28372.625     241117.3 0.0030240836 -0.0017590726 0.0059442659 
  553000    2.6427819  0.023977922    28372.625    241626.96 0.0080576933 0.0016924797 0.0028022439 
  554000    2.6660103   0.02330811    28372.625    242216.47 0.0044445533 -0.0013862365 0.0040983789 
  555000    2.6625148   0.02342585    28372.625    242818.17 0.0022790466 -0.0027695859 0.0012286924 
  556000    2.6415877  0.023354871    28372.625    243319.13 0.0030820922 0.00051515309 0.0025236122 
  557000    2.6525128  0.023446057    28372.625    243626.95 0.0046803553 0.0040576188 0.0024531834 
  558000    2.6602208  0.023804179    28372.625    243902.47 0.0038427595 0.0038146647 0.0013764641 
  559000    2.6434885  0.023620126    28372.625    244108.79 0.0038374882 0.0039701626 -0.0016015548 
  560000    2.6475778  0.023390891    28372.625    244253.76 0.0041838924 0.0059737316 -0.001932498 
  561000    2.6457688  0.023381972    28372.625    244425.54 0.0058741313 0.0071966596 -0.0025354385 
  562000    2.6530426  0.023374764    28372.625    244676.02 0.0039582912 0.0042482083 -0.0016868235 
  563000    2.6603777  0.023774029    28372.625    244915.86 0.0046188274  0.003967349 0.00041882665 
  564000    2.6438454  0.023789102    28372.625    245110.04 0.0040549136  0.003364337 0.0011528072 
  565000    2.6441474  0.023356727    28372.625    245209.01 0.0028046514 0.0014515733 0.0033701435 
  566000    2.6707331  0.023440799    28372.625     245342.9 0.0028489472 0.0025590775 0.0048137143 
  567000    2.6444047  0.023281156    28372.625    245576.26 0.0033781017 0.0016991303 0.0067375565 
  568000    2.6535971  0.023468501    28372.625     245712.7 0.0011351316 -0.00076083243 0.0021471127 
  569000    2.6535443  0.023770968    28372.625    245613.96 -0.0017642202 0.00081946324 0.0038020378 
  570000    2.6503941  0.023394119    28372.625    245356.04 -0.00078170589 0.0032918933 0.0013536387 
  571000    2.6433791  0.023403296    28372.625    245178.62 -0.00097655049 0.0044381984 -0.00036129848 
  572000    2.6559606  0.023667422    28372.625    245031.06 -0.0011627196 0.0039919033 0.0029785772 
  573000    2.6444026  0.023789856    28372.625    245017.28 0.00088597242 0.0041355251  0.004617733 
  574000    2.6495477  0.024036606    28372.625    244985.79 0.0022151756 0.00068564181 0.0023229198 
  575000    2.6427363  0.023614119    28372.625    244905.52 -0.0018107774 0.00087957553 0.0017044504 
  576000    2.6582468  0.023386967    28372.625    244746.14 -0.0022632857 0.0014950054 0.0016401281 
  577000    2.6384072  0.023990253    28372.625    244799.27 -0.0015588694  0.001488679 0.00028435932 
  578000    2.6466776  0.023386224    28372.625    245046.23 -0.0025683864 0.0030211783 -0.0035473186 
  579000    2.6543409  0.023311729    28372.625    245291.71 -0.0011851612 -0.0013858865 -0.0016811353 
  580000     2.646373  0.023663898    28372.625    245574.61 -0.0023841391 0.0013991273 -0.0029160184 
  581000    2.6647123   0.02325934    28372.625    245847.36 -0.0040337386 0.00066570473 -0.0026242942 
  582000    2.6603484  0.024078656    28372.625    246240.16 -0.0069354097 0.0020178996 -0.0038637246 
  583000    2.6537253  0.023599039    28372.625    246578.26 -0.006275201 0.0042704138 -0.0044974539 
  584000    2.6566185  0.023748993    28372.625    246981.06 -0.0024777949 0.0052887282 -0.0017766566 
  585000    2.6395714  0.023308965    28372.625    247524.75 -0.0025506888 0.0019478491 -0.0029843314 
  586000    2.6477141  0.023402962    28372.625    248057.04 -0.003672418   0.00147379 -0.0029622353 
  587000    2.6526619    0.0239853    28372.625     248347.2 -0.0069543034 -0.00037131294 -0.0033496026 
  588000    2.6471377  0.023596601    28372.625    248616.22 -0.0076250638 -0.0020373116 -0.0031435045 
  589000    2.6554075  0.023455949    28372.625    248827.42 -0.0083607678 -0.0023129328 -0.0024948338 
  590000    2.6391187  0.024738259    28372.625    248990.44 -0.0058882154 -0.00075728965 -0.0007102404 
  591000    2.6468781  0.023392507    28372.625    249044.46 -0.0051412195 -0.0020415716 -0.0018141305 
  592000    2.6498508  0.023426502    28372.625    249296.35 -0.0047680453 -0.0039129808 -0.0025278146 
  593000    2.6564887  0.023470894    28372.625    249472.95 -0.0042062923 -0.0024612587 -0.00053092377 
  594000    2.6665875  0.024377219    28372.625    249799.44 -0.0015708297 -0.004450966 -0.0015654322 
  595000    2.6543435  0.024315184    28372.625    250090.81 -0.00086354417 -0.0047227069 -0.0022675027 
  596000     2.651963  0.023429406    28372.625    250302.55 -0.0012027259 -0.0042507114 -0.0019844965 
  597000      2.64882  0.023743579    28372.625    250464.59 -0.0040727469 -4.0973532e-05 -0.0040541724 
  598000    2.6429818   0.02375369    28372.625    250593.06 -0.0050345298 0.0023646009 -0.0022300827 
  599000    2.6466921  0.023551273    28372.625    250872.15 -0.0037290874 0.0031588964 -0.0024726147 
  600000    2.6302669  0.025438967    28372.625    251274.66 -0.0061984159 0.0013511544 -0.0078036692 
  601000    2.6624986  0.023809583    28372.625    251819.11 0.0027534809 0.0011083302 -0.0048691632 
  602000    2.6605974  0.024097315    28372.625    252150.83 0.0033032086 0.00077882608 -0.0014284065 
  603000    2.6540416  0.023525263    28372.625    252402.06 -0.00044087884 -0.00095786849 -0.00098137966 
  604000    2.6480021  0.023311828    28372.625    252660.44 0.0044950583 0.00074134613 -0.0010788211 
  605000    2.6477855   0.02354766    28372.625    253062.69 0.0045321552 0.0033557242 -0.0019252218 
  606000    2.6371414  0.024662652    28372.625    253457.96 0.0038887495  0.001216563 -0.0053417962 
  607000    2.6459193  0.023728806    28372.625    253841.24 0.0033085791 0.0024579462 -0.0045704883 
  608000    2.6629946  0.024022056    28372.625    254228.76 0.0023965555 0.0040420692 -0.0044607036 
  609000    2.6388444  0.024647506    28372.625    254577.66 0.0043887666 0.0088360358 -0.00043312265 
  610000     2.641577  0.023543694    28372.625    254968.69 0.0017332547 0.0039767104 0.0031243023 
  611000    2.6486858  0.023729093    28372.625    255312.75 0.0016885647 0.0029853209  0.005573769 
  612000    2.6482354  0.023699531    28372.625    255645.01 0.00046371804 0.0016565013 0.0012609849 
  613000    2.6505306  0.023998553    28372.625    256095.75  0.001044925 0.0026888165 0.0052852995 
  614000    2.6439754  0.023650436    28372.625    256584.42  0.003575549 0.0043124055 0.0020628441 
  615000    2.6530981   0.02336501    28372.625     257055.2  0.003250575 0.0045048836 0.00023319847 
  616000    2.6501384  0.023667991    28372.625    257589.78 0.0026969791 0.0047352539 0.0025488622 
  617000    2.6535633  0.023305134    28372.625    258108.75 0.00028121334 8.1866043e-05 0.0055030959 
  618000    2.6566969  0.023524768    28372.625    258683.99 0.0014408956  0.000197582 0.0067434111 
  619000     2.650565  0.024092981    28372.625    259134.18 0.0033628747 0.0015965323 0.0015687777 
  620000    2.6523901  0.023736382    28372.625    259552.41  0.002732731 2.0954687e-06 0.0053882718 
  621000    2.6452279  0.024150574    28372.625    259985.42 0.0059301285 -0.001658639  0.006368534 
  622000    2.6521558  0.023748621    28372.625    260338.23 0.0057980887 -0.001354177 0.0059278401 
  623000    2.6472323  0.023324138    28372.625    260739.12 0.0046350428 -0.00078090419 0.0042174103 
  624000    2.6539645  0.023598454    28372.625    261299.89  0.004490979 -0.00042437029 0.0045185725 
  625000    2.6596391  0.024210829    28372.625    261842.37 0.0060205958 0.0042477455  0.003954119 
  626000    2.6620318  0.023608197    28372.625     262364.6 0.00077146816 -0.00078709762 0.0016162368 
  627000    2.6575708  0.023586183    28372.625    262740.96 -0.0023647324 -0.0021690809 0.0013913954 
  628000    2.6511505  0.023899858    28372.625    263080.89 -0.0046610931 -0.0021526308 0.00069948248 
  629000    2.6605244  0.023208673    28372.625    263418.35 -0.0036319556 -0.0011647207 0.0051564303 
  630000    2.6598932  0.023942746    28372.625    263815.14 0.0013343098 -0.0015546264 0.0039816242 
  631000    2.6598759  0.023196214    28372.625    264283.08 0.0034107875 -0.0041532398 0.00038780846 
  632000    2.6460873  0.023535959    28372.625    264827.25 0.0011582449 -0.0036990133 -0.0024383811 
  633000    2.6492483  0.023635625    28372.625    265254.56 0.00064782036 -0.0019937086 -0.00081010876 
  634000    2.6414527  0.023450164    28372.625     265660.7 0.0002744391 -0.0019495152 -0.001279852 
  635000    2.6591849  0.023170957    28372.625    266060.63 0.0024192467 -0.0026563793 -0.0043023628 
  636000    2.6496655  0.023391206    28372.625    266582.37 0.00016759857 -0.0028033018 -0.0049928529 
  637000    2.6629263  0.023796352    28372.625    267216.29 0.0032991037 -0.0047775313 -0.0061667603 
  638000    2.6625723  0.024041811    28372.625    268048.89 0.0017686264 -0.0062651005 -0.0049928531 
  639000    2.6636714   0.02345109    28372.625    268835.86 0.0036817646 -0.0062117058 -0.0084773223 
  640000    2.6512158  0.023533389    28372.625    269582.83 0.0066909787 -0.0061007486 -0.0045428347 
  641000    2.6564299  0.023307537    28372.625    270206.82 0.0035180788 -0.0079068236 -0.0054561139 
  642000    2.6419524  0.024131699    28372.625    270693.04 0.0050157589 -0.011471515 -0.005924514 
  643000    2.6550502  0.023302251    28372.625    271244.93 0.0017604869 -0.0043552643 -0.0066818277 
  644000    2.6717562  0.023459731    28372.625    271867.01 0.00034229669 -0.003481103 -0.0058353015 
  645000    2.6507053  0.023307331    28372.625    272486.32 -0.0028658999 -0.0019037028 -0.0048704769 
  646000    2.6601539  0.023879818    28372.625    273012.56 -0.0064462966 -0.0019487908 -0.0017343154 
  647000    2.6579679  0.023359341    28372.625       273489 -0.0040768796 0.0027136898 -0.0027662195 
  648000    2.6498647  0.023203266    28372.625    273964.39 -0.0042646306 0.0016852145 -0.0011727669 
  649000    2.6646473  0.023236323    28372.625     274265.6 -0.0025254425 0.0015902787 -0.001236623 
  650000     2.632484  0.024773338    28372.625    274470.71 -0.0027895034 0.0082527405 0.00032739477 
  651000    2.6564643  0.023385795    28372.625    274558.85 -0.0050676992 0.0013208012 0.00089898841 
  652000    2.6632749  0.023507729    28372.625    274560.65 -0.0054555559 -0.00029230342 -0.00065732906 
  653000    2.6469853  0.023627259    28372.625    274721.38 -0.0047265483 -0.00032553899 -6.755316e-06 
  654000    2.6578842  0.023944646    28372.625     275064.7 -0.0036926769 0.0010053226 0.00094183203 
  655000    2.6489107  0.024723235    28372.625    275616.25 -0.0054508034 0.0043542237 -0.00090249774 
  656000    2.6553639  0.023414517    28372.625    276039.36 -0.0043711864 0.0013644409 -0.00079391655 
  657000    2.6575711  0.023425796    28372.625    276437.67 -0.0063777414 0.0017926064 -0.0030594978 
  658000    2.6633897  0.023762281    28372.625    276954.32 -0.0074963969  0.001873793 -0.005950701 
  659000    2.6483867  0.023883485    28372.625    277515.71 -0.0040438167 0.0012669551 -0.0059018658 
  660000    2.6542925  0.024172391    28372.625    278095.52 -0.0051355657 -0.003120964 -0.0097038149 
  661000    2.6618763   0.02373669    28372.625    278646.67 -0.0066929668 -0.00021409236 -0.0048015766 
  662000    2.6636281  0.023233453    28372.625    279472.13 -0.0074352245 -0.0019052719 -0.0076629127 
  663000    2.6581779  0.023134902    28372.625    280335.64 -0.005916475 -0.0050926215 -0.0061842994 
  664000    2.6572217  0.024688103    28372.625    281091.45 -0.0041276864 -0.0031739826 -0.008110219 
  665000    2.6512303      0.02385    28372.625    281736.38 -0.0013071509 -0.00030846205 -0.0058357962 
  666000    2.6520196  0.023398391    28372.625    282350.56 0.0022370826 -0.00089160626 -0.0070424492 
  667000    2.6586437  0.023408591    28372.625    283059.89 0.0047582838 -0.0037136382 -0.0053161549 
  668000    2.6383237  0.025594301    28372.625    283749.88 0.0052551067 -0.0036623573 -0.0040596607 
  669000    2.6496914  0.023620428    28372.625    284379.88 0.0039979284 -0.0045955296  -0.00421749 
  670000    2.6432815  0.023637461    28372.625    284905.65 -0.002397757 -0.0046943047 -0.001175624 
  671000    2.6323139  0.024324916    28372.625    285355.82 -0.0011194033  -0.00589309  0.002691037 
  672000    2.6484875  0.024059645    28372.625     285843.5 -0.0025557999 -0.0038272153 0.0032096629 
  673000    2.6576311  0.023504448    28372.625    286221.34 -0.00035712414 -0.0071719564 0.0040250867 
  674000    2.6533332  0.023258898    28372.625    286629.31 -0.00040411266  -0.00408317  0.006192454 
  675000    2.6513314  0.025143048    28372.625    287071.87 -0.0029297316 -0.0037592554 0.0043133303 
  676000    2.6532141  0.023963846    28372.625    287584.86 -0.0022248172 -0.0049738276    0.0062174 
  677000     2.640496  0.024833148    28372.625    288079.68 -0.0029878039 -0.0046388616 0.0010765756 
  678000    2.6504703  0.023642602    28372.625    288438.03 -0.0035990066 -0.0028245642 0.0053580723 
  679000    2.6470708  0.023694384    28372.625    288701.44 -0.0033033294 -0.0031495162 0.0035285664 
  680000    2.6378778  0.025235746    28372.625    289112.68 -0.0030007493 -0.0029104723 0.0053873956 
  681000    2.6477273  0.023661383    28372.625    289646.66 0.00037941494 -0.0051543183 0.0056969686 
  682000    2.6504247  0.023757837    28372.625    290272.27 -0.00038434179 -0.0053411949 0.0034668233 
  683000    2.6425486  0.024606219    28372.625    290877.08 -0.00073032053 -0.0060719415 0.0053725031 
  684000    2.6497092  0.023574221    28372.625    291463.48 0.0025871652 -0.0071472528 0.0040991423 
  685000    2.6416026  0.023537131    28372.625    291983.61 0.0040693975 -0.0072287324 0.0039847851 
  686000    2.6517252  0.024186553    28372.625    292593.68 0.0031424993 -0.0077575654 0.0036716822 
  687000    2.6455949    0.0239545    28372.625    293047.95 -0.0022185554 -0.0065568765 0.0026215158 
  688000    2.6427648  0.024009038    28372.625    293489.85 0.0016567661 -0.0050101432 0.0016328721 
  689000    2.6606749  0.023685675    28372.625    293810.18 0.0042551737 -0.0032994985 0.0058352339 
  690000    2.6521468  0.024443885    28372.625    294163.54 0.0017419461 -0.0052943172 0.00022065206 
  691000    2.6553201  0.023788124    28372.625    294406.74 -0.0027421271 -0.0055440084 0.0022355561 
  692000    2.6561791  0.023581654    28372.625    294742.63 -0.0015604767 -0.0058769322 0.0036431704 
  693000    2.6568901  0.024241783    28372.625    295137.19 -0.0012537945 -0.0036277641 0.0029465868 
  694000    2.6555944  0.023214134    28372.625    295574.42 -0.0035886233 -0.0022353869 0.0040220396 
  695000    2.6514349   0.02334275    28372.625    296090.37 -0.0039039045 -0.0013469489 0.0060827896 
  696000    2.6464255  0.023450296    28372.625    296602.37 -0.0020222166 -0.00046182289 0.0059947457 
  697000    2.6532081  0.024816577    28372.625    297190.47 -0.00069832112 0.0024370729 0.0013980295 
  698000     2.659543  0.023220077    28372.625     297741.8 -5.2212279e-06 -0.0021587533 0.0033358892 
  699000    2.6616003  0.023082705    28372.625    298428.91 -0.00037589603 -0.00093718288 0.0021416947 
  700000    2.6486268  0.023229646    28372.625    299269.59 -0.00075552622 0.0014273251 0.0035723667 
  701000    2.6378182  0.024262458    28372.625    300097.72 3.0909057e-05 0.0047462111 0.0026080702 
  702000    2.6497339  0.023916963    28372.625    300745.17  0.001998075 0.0011028804 0.00033174118 
  703000    2.6458895  0.023336351    28372.625    301257.13 0.00038062585 -0.00091711975 0.0019028524 
  704000    2.6646027  0.023750197    28372.625    301691.73 -0.00079897138 0.0013375478 -0.0020922359 
  705000    2.6497809  0.023755477    28372.625    302127.86 5.511137e-05 -0.00065687775 -0.00094285074 
  706000    2.6633414  0.023382891    28372.625    302528.89 0.0013064488 -0.0022759376 0.0021627175 
  707000    2.6462728  0.023608058    28372.625    303062.56 0.00075811574 -0.0015866914 0.0027235611 
  708000    2.6445196  0.024451514    28372.625    303632.31 0.0022902567 0.0011738063 0.0034695245 
  709000    2.6500638  0.023740996    28372.625    304126.05 0.0048321886 -0.0012646375  0.003792359 
  710000    2.6447543  0.023833875    28372.625    304537.74 0.0031945856 -0.0011516776 0.0062145143 
  711000    2.6449401  0.023407702    28372.625    304736.36 -0.0021081875 0.0026668503 0.0021774589 
  712000    2.6397138  0.025219258    28372.625    304912.66 0.0018624412 0.0077510968 0.0042763383 
  713000    2.6712992   0.02310736    28372.625    305057.48 -0.00034605635  0.009478904 0.0009447154 
  714000    2.6562748   0.02326582    28372.625    305263.02 -0.00091767924 0.0087968877 0.00057574729 
  715000    2.6650601  0.023713636    28372.625    305527.78 0.00045521641 0.0090060666 0.00033106453 
  716000    2.6583222  0.024567026    28372.625    305887.95 -0.0011885849 0.0064869464 0.0013045604 
  717000    2.6475959  0.023511612    28372.625    306105.35 -0.00054772075 0.0073204553 0.0035564592 
  718000    2.6535916  0.024586873    28372.625    306323.49 -0.0027341366 0.0038267396 -0.00086921748 
  719000    2.6555418  0.023510878    28372.625    306589.41 0.0016529589  0.005288508 0.0044039165 
  720000    2.6341957   0.02445874    28372.625    306944.65 -0.0020428052 0.0041374569 0.0063778699 
  721000    2.6612262  0.023581805    28372.625    307423.73 -0.0020414255 0.0052310189 0.0021915277 
  722000    2.6521189  0.023582374    28372.625    307888.98 -0.0025134913 0.0048376429 0.00066779759 
  723000    2.6580726  0.023848612    28372.625    308125.83 -0.0039154247 0.0030287776 0.0030349783 
  724000    2.6472684  0.023444273    28372.625    308180.03 -0.0027586164  0.002181261  0.001901235 
  725000    2.6448721  0.024408963    28372.625    308373.76 -0.0026756332 0.0010353275 -0.0021022488 
  726000    2.6515411  0.023425648    28372.625    308719.87 -0.0032043453 0.0015151164 -0.0009024653 
  727000    2.6517102  0.023565305    28372.625    308987.66 -0.0024595866 0.0070404873 0.0023488535 
  728000    2.6479702  0.023114388    28372.625    309435.85 -0.0028788887  0.003149706 0.0030337953 
  729000    2.6463029  0.023836138    28372.625    309964.91 -0.0051834266 0.0054883861 0.0028191158 
  730000    2.6482573  0.023235632    28372.625     310502.8 -0.0032722506 0.0050946955 0.0016055083 
  731000    2.6436071  0.023962166    28372.625     311094.5 -0.0074807577  0.005501807 0.0015275138 
  732000    2.6569119  0.024332559    28372.625    311774.41 -0.0040552161 0.0021282435 0.0017440165 
  733000    2.6416155  0.024105736    28372.625    312680.36 -0.006865111 0.0026714703 0.0031902678 
  734000    2.6559922  0.023583667    28372.625    313689.59 -0.0055511231 0.00046864007 0.0015500853 
  735000    2.6498019  0.023789316    28372.625    314702.41 -0.0056757474 0.0017525629 0.0020687007 
  736000    2.6546766  0.023598911    28372.625    315543.63 -0.0064815634 0.00025466012 0.0021232608 
  737000    2.6591642  0.023846175    28372.625    316267.23 -0.0056454932 -0.0014480245 0.00050314342 
  738000    2.6462505  0.023967526    28372.625    317005.24 -0.013296608 -0.0029224996 0.0010312282 
  739000    2.6455086  0.023489449    28372.625     317742.4 -0.012432842 -0.0020684191 0.0034559884 
  740000    2.6488109  0.023771354    28372.625    318405.45  -0.01264657 -0.0028497193 0.0040832554 
  741000    2.6545785   0.02329712    28372.625    319049.51 -0.0087142193 -0.00086949167 0.0064370261 
  742000    2.6496866  0.023824061    28372.625    319633.59 -0.0043373029 0.0040801171 0.0031138875 
  743000    2.6513467   0.02437238    28372.625    320284.23 -0.005127147 5.747919e-05 0.0013491999 
  744000    2.6512121  0.023383605    28372.625    320926.25 -0.0021343373 0.0022926107  0.004134555 
  745000    2.6513612  0.023914293    28372.625     321601.1 -0.0011829632 0.0024104242 0.0027056209 
  746000    2.6429979  0.023203529    28372.625    322390.29 -0.0021056543 0.0012043909 -0.00079809529 
  747000    2.6568875  0.023661992    28372.625    323423.46 -0.00083681151 -0.00056564018 -0.0023738062 
  748000     2.635133  0.024623086    28372.625    324247.43 0.0023675724 -0.0053347626 -0.0039700856 
  749000     2.639727  0.023866999    28372.625    324967.93 0.0021708444 -0.0073144026 0.00024987456 
  750000    2.6505445  0.023856217    28372.625    325733.52 0.0030261947 -0.0061736638 -0.001708871 
  751000    2.6625167  0.023611159    28372.625    326551.18 0.0026215406 -0.0081661318 5.5650004e-05 
  752000    2.6533146  0.023155964    28372.625    327588.62 0.0034583379 -0.0082773402 -0.0027330042 
  753000     2.644192  0.023935591    28372.625    328840.73 0.0038858137 -0.011713808 0.00069831833 
  754000     2.648112  0.023105741    28372.625    330018.99 0.0051841161 -0.0092551677 0.0022381761 
  755000    2.6487455  0.023993535    28372.625    331137.72 0.0039676913 -0.0062498028 0.0020160324 
  756000    2.6482342  0.023456024    28372.625    332099.44 0.0027513166 -0.0056817208 0.0041708924 
  757000    2.6515744  0.023301197    28372.625    333070.39 0.00067877852 -0.0056157129 0.0031697161 
  758000    2.6477338  0.023708995    28372.625    334040.29 4.8303065e-05 -0.00011487465  0.002831577 
  759000    2.6454647  0.023158037    28372.625    334958.66 0.00024272628 0.0016748032 0.00079885693 
  760000    2.6390831  0.025142204    28372.625    335818.22 -0.001425838  0.003255107 0.0013020214 
  761000    2.6426806  0.023848511    28372.625    336789.03 0.0044968589 -0.0034867591 0.0037214196 
  762000    2.6446711  0.023743397    28372.625    337814.51 0.0027980216 -0.004192498  0.002653195 
  763000    2.6517447  0.023669895    28372.625    338704.47 0.0011035536 -0.0062701721 0.0020426372 
[...]
 1844000    2.6592289  0.023455676    28372.625    949474.93 0.00016137135 -0.0052229369 0.0005696993 
 1845000    2.6457339  0.023341333    28372.625     950382.2 -0.004510535 -0.0044506399 0.00069400022 
 1846000    2.6529055   0.02339413    28372.625    950964.59 -0.0043841517 -0.0033591608 -0.00051660185 
 1847000    2.6434611  0.024353364    28372.625    951449.77 -0.0056358543 -0.0044800773 0.0014462308 
 1848000    2.6455372   0.02379908    28372.625    952274.71 -0.0042617454 -0.0050970309 0.0016146373 
 1849000    2.6571251  0.023632893    28372.625    953100.98 -0.0046970539 -0.0027577584  0.002972901 
 1850000    2.6564743  0.023890719    28372.625    953991.57 -0.0033193902 0.0004403332 0.0038980522 
 1851000    2.6449988  0.024290175    28372.625    954646.53 -0.00042185724 0.0015089663 0.0042963923 
 1852000    2.6386266   0.02379975    28372.625     955197.9 0.0029115187 -0.0026545707 0.0015947794 
 1853000    2.6603282  0.023363867    28372.625    955819.06 -2.1066911e-06 0.0007758018 0.0018877244 
 1854000    2.6457809  0.024434136    28372.625    956422.46 0.0015374366 0.0007181468  0.003542418 
 1855000    2.6584542   0.02362822    28372.625    957200.93 0.0033464242 0.00055897553 0.0017353136 
 1856000    2.6512904  0.023398373    28372.625    958081.94 0.0021817908 0.00036299109 0.0026625406 
 1857000    2.6491391  0.023793142    28372.625    959067.01 -0.0021467691 0.00065592248 0.0039018342 
 1858000    2.6385438  0.023665299    28372.625    960105.95 -0.0011123131 -0.0014388036  0.003501806 
 1859000    2.6480608  0.023792565    28372.625    961071.01 0.0026712659 -0.00069033226  0.004440221 
 1860000    2.6596512  0.023663736    28372.625    962154.25 0.0013229212 0.0035682569 0.0018534876 
 1861000    2.6504376  0.023734807    28372.625    963093.32 -6.2654666e-05 0.0022682328 0.0017192656 
 1862000    2.6287912  0.025318767    28372.625    963905.62 -0.004814163 0.0097574536 -0.0048060968 
 1863000    2.6495107  0.023305975    28372.625    964828.94 -0.00036447332 0.0056810367 -0.0031559006 
 1864000    2.6499218  0.023387509    28372.625    965836.13 -0.0011870886 0.0084533441 -0.0029003293 
 1865000    2.6567592  0.023544529    28372.625    966747.13 0.0020271829 0.0081473656 -0.0067125714 
 1866000    2.6622079  0.023646441    28372.625    967543.25 0.0024481934 0.0073646593 -0.0049896668 
 1867000    2.6453744  0.023465242    28372.625    968211.07 0.0020485568 0.0088118439 -0.002757063 
 1868000    2.6353621  0.023659136    28372.625    968921.32 0.00021695765 0.0057506833 -0.0031445313 
 1869000    2.6669924  0.023216994    28372.625    969499.07 0.0023025106 0.0061976083 -0.0037918927 
 1870000    2.6559309  0.023652277    28372.625     969694.3 0.0029345221 0.0040135217 -0.0015527473 
 1871000     2.666724  0.023712207    28372.625    970033.86 0.0037786043 0.0044685182 -0.00050535542 
 1872000    2.6570503  0.023392293    28372.625    970599.61 0.00086303687 0.0074010694 -0.0043753253 
 1873000    2.6454101  0.023621881    28372.625    971380.03 -0.0022737496 0.0080858332 -0.0036187798 
 1874000     2.649781  0.023131486    28372.625     972120.2 -0.0027886257  0.013314869 -0.0038591959 
 1875000    2.6523194  0.023469627    28372.625    972282.96 -0.0011561892   0.01350338 -0.0037662636 
 1876000    2.6546683  0.023440047    28372.625    972135.42 -0.00084711325 0.0077484135 -0.0030405841 
 1877000    2.6492851  0.023504343    28372.625    972043.26 0.00065210693  0.008800482 -0.0052637914 
 1878000    2.6556333  0.023402086    28372.625    972074.18 0.0036415024 0.0079498183 -0.004731728 
 1879000    2.6637032  0.023847704    28372.625    972111.84 0.0058781614 0.0077572199 -0.0044490692 
 1880000    2.6561565   0.02346142    28372.625    972071.55 0.0081436505 0.0096096299 -0.0040710062 
 1881000     2.656443  0.025310108    28372.625    972057.07 0.0059057845 0.0045422055 -0.0042278947 
 1882000     2.650158  0.023582062    28372.625    972049.73 0.0032635926 0.0064425446 -0.0037911027 
 1883000    2.6290587  0.024911635    28372.625    972241.79 0.00083528997 0.0039951411 -0.0052804712 
 1884000    2.6652524  0.023185301    28372.625    972295.75  0.005440853  0.003111788 0.0020387123 
 1885000    2.6588259  0.024093588    28372.625    972445.13 -1.6880558e-05 0.0081168346 0.0022261832 
 1886000    2.6477135  0.023348444    28372.625     972664.5 -0.0019108183 0.0092964119 0.0024656039 
 1887000    2.6436589   0.02437704    28372.625     973175.6 -0.0027028172  0.010475542   0.00168635 
 1888000    2.6450078  0.023780909    28372.625    973782.46 -0.0024126451   0.01086601 0.0050668374 
 1889000    2.6604859  0.023335976    28372.625    974285.96 -0.0039450574  0.010033851 0.0030797669 
 1890000    2.6507275  0.023835687    28372.625    974569.01 -0.0045089394  0.011119698 0.0038919537 
 1891000    2.6554982  0.023838148    28372.625    974906.76 0.00038034925 0.0085891594 0.0012329742 
 1892000    2.6508076  0.025018346    28372.625    975359.37 0.0035352661  0.008926847 0.0060613588 
 1893000    2.6557125  0.023397638    28372.625     975735.6 -0.0019257006 0.0038826411 -0.00027002715 
 1894000     2.653495  0.023759937    28372.625    976196.61 0.00055958331 0.0015177277 0.00072411839 
 1895000    2.6506128  0.024894608    28372.625    976586.08 -0.0010689144 0.0021780745 -0.0020983484 
 1896000    2.6445771  0.024873171    28372.625    977155.91 -0.0039046787 0.0014711063 -0.00070248852 
 1897000    2.6499137  0.023558546    28372.625    977718.58 -0.0041639906 0.0084663158 0.0026688325 
 1898000    2.6648152  0.025280688    28372.625    978130.69 -0.0052812972 0.0080853595 0.0028466869 
 1899000    2.6528184   0.02335103    28372.625    978602.02 -0.0033936261 0.0062433745  0.001849316 
 1900000     2.665079  0.023122282    28372.625    979229.76 -0.0029339859 0.0095120198 0.00062508189 
 1901000    2.6540117  0.024239291    28372.625    979841.76 -0.00087937821 0.0081814454 0.00098891789 
 1902000    2.6593337  0.023936257    28372.625     980283.8 -0.0008649363 0.0076543425 -5.9518106e-05 
 1903000    2.6557262  0.023584407    28372.625    980614.17 9.3707543e-05 0.0067270538 -0.0010496213 
 1904000    2.6508662  0.023462218    28372.625    981080.15 -0.00061181784 0.0092140539 0.0042756043 
 1905000    2.6536282    0.0233873    28372.625    981449.19 -0.001876292 0.0083060411 0.00082735207 
 1906000    2.6410713   0.02440546    28372.625    981930.72 -0.0010790455 0.0068865882 0.0018148153 
 1907000    2.6416117  0.024885896    28372.625    982438.88 -0.00096896275 0.0050362779 0.0050686902 
 1908000    2.6378072  0.024781387    28372.625    982875.76 0.0030815193  0.010912773 0.0037841626 
 1909000    2.6444647  0.023800404    28372.625    983104.43 0.00056558376 0.0047114796 -3.3728017e-05 
 1910000    2.6652474  0.023780733    28372.625    983030.93 -0.001546051 0.0028300594 -0.00051974159 
 1911000    2.6598479  0.023985077    28372.625    983103.91 -0.00045823347 0.0086257925 -0.001582484 
 1912000    2.6527565  0.023853641    28372.625    983076.93 -0.003567188 0.0035378195 0.0018467893 
 1913000    2.6370503  0.023661925    28372.625    982982.22 -0.004998799 0.0026837926 0.0012622836 
 1914000    2.6622684  0.023313227    28372.625    982904.93 -0.0028209665 0.0039227534 -0.0011764674 
 1915000    2.6546981  0.024169608    28372.625    982831.82 -0.0061391505 0.0017261967 0.00044953846 
 1916000     2.651291  0.023450098    28372.625    982847.33 -0.0051336276 0.0021859632 0.00079382885 
 1917000    2.6435363  0.025449601    28372.625     982757.4 -0.0036115788 0.0027600879 -0.00082843002 
 1918000    2.6541928  0.023405643    28372.625    982768.43 -0.003033887 3.3823539e-06 -0.0038127839 
 1919000    2.6540557  0.023523808    28372.625     982811.4 -0.0027182073 0.0018736141 -0.0033766685 
 1920000    2.6370276  0.024052385    28372.625    982613.58 -0.0060319598 0.0028803644 0.00023323561 
 1921000    2.6495133  0.023296113    28372.625    982318.93 -0.003781133 -0.0019347526 -0.0022533423 
 1922000    2.6485911  0.024573738    28372.625    982110.32 -0.0012361142 -0.0012865047 -0.003073315 
 1923000    2.6679796  0.023490435    28372.625    981848.06 0.00024972909 -0.0017359643 -0.0028095959 
 1924000     2.659471  0.023865152    28372.625    981497.31 -0.001004942 -0.0026315795 -0.0039153846 
 1925000    2.6582522  0.024654288    28372.625    981248.81 -0.00016724504 -0.0036937126 -0.0012799058 
 1926000    2.6509404   0.02427522    28372.625    981168.32 -0.00063562349 -0.00066631893 -0.0043345227 
 1927000    2.6402058  0.024087722    28372.625    981176.93 -0.0034246427 -0.00078906458 -0.0042903992 
 1928000    2.6522603  0.023575803    28372.625    981315.86 -0.0018922715 -0.0012156499 -0.0031673702 
 1929000     2.624064  0.025357398    28372.625    981376.72 -0.0018851262 -0.0021367364 -0.0042316105 
 1930000    2.6549935  0.023674534    28372.625    981387.58 -0.0013545375 -0.0059234207 -0.0049007671 
 1931000     2.656095  0.023375327    28372.625    981231.44 -0.0020678432 -0.0048599431 -0.0034656406 
 1932000     2.655177  0.024034034    28372.625    981466.84 -0.0034802711 -0.0042823339 -0.00064566671 
 1933000    2.6487549  0.023879118    28372.625     981653.8 -0.0036499561 -0.0034776629 0.00020735821 
 1934000    2.6479283  0.023745692    28372.625    981620.49 -0.0075514871 -0.0017643939 0.0016959976 
 1935000    2.6597953  0.023559257    28372.625    981470.19 -0.0019529946 -0.0032162244 0.0012164343 
 1936000    2.6630379  0.023455724    28372.625     981360.8 -0.0026968087 -0.0038433191 0.00047427228 
 1937000    2.6415638  0.025114278    28372.625     981490.1 -0.0081150402 -0.0029109951 0.00073635237 
 1938000    2.6545875  0.023817733    28372.625    981522.36 -0.002792204 -0.0060688523 0.00041895775 
 1939000    2.6470843  0.023772057    28372.625    981801.72 -0.0014288078 -0.0072252581 -0.0017488563 
 1940000    2.6379148  0.023879711    28372.625    982129.46 -0.0014438552 -0.0065382879 -1.9519999e-05 
 1941000    2.6438408  0.023906157    28372.625    982484.89 -0.0019555967 -0.0064219839 -0.00073787611 
 1942000    2.6552285  0.023196219    28372.625    982652.05 -0.0017677411 -0.0057730978 -0.0016878799 
 1943000    2.6547537  0.023480712    28372.625    983038.31 -0.0024462454 -0.0061590704 0.0022683743 
 1944000    2.6454584  0.023423406    28372.625       983242 -0.001636723 -0.0029708823 0.0028378401 
 1945000    2.6591083  0.023779747    28372.625    983470.35 -0.0036579951 -0.0058498167 0.0023721984 
 1946000    2.6624301  0.023322998    28372.625    983556.94 -0.0062828206 -0.0042766877 0.00029265293 
 1947000    2.6386967  0.024116078    28372.625    983343.34 -0.0079624136 -0.0049172901 0.00017421678 
 1948000    2.6405403  0.024152056    28372.625    983032.67 -0.0065926279 -0.0036076267 -0.0020374887 
 1949000    2.6486699  0.023474517    28372.625    982801.91 -0.0054039002 -0.004825687 0.0003515873 
 1950000    2.6492899  0.023960561    28372.625    982523.53  -0.00802182 -0.0038885601 -0.00029005772 
 1951000    2.6405902  0.023758991    28372.625    982187.76 -0.0088570456 -0.002823304 0.0017845124 
 1952000      2.64278  0.024274827    28372.625    981808.24 -0.0076448554 -0.0031657522 0.0031630794 
 1953000    2.6444192  0.023292844    28372.625    981579.06 -0.0041632172 -0.0066028196 0.0062510508 
 1954000    2.6469715  0.024190183    28372.625    981594.92 -0.0040654341  -0.00671369 0.0049285525 
 1955000    2.6451173  0.024336457    28372.625    981897.24 -0.00041529427 -0.0086374503 0.0043825339 
 1956000    2.6491213  0.023567855    28372.625    982161.96 -0.0011714843 -0.0075986976  0.006609065 
 1957000     2.656977  0.023876709    28372.625    982545.67 -0.00096462159 -0.007766287  0.008221801 
 1958000    2.6507108   0.02407961    28372.625     983084.2 -0.0004192689 -0.0057742622 0.0062592615 
 1959000    2.6525744  0.023170727    28372.625    983562.28 0.0013265944 -0.0097024358  0.006205553 
 1960000    2.6467363  0.023200558    28372.625    983918.91 0.00041556688 -0.0067070543 0.0043426311 
 1961000    2.6373544  0.024551806    28372.625    984191.26 -0.00046683929 -0.0057157056 0.0065096731 
 1962000     2.638884  0.024713749    28372.625     984415.9 0.0038059553 -0.0096265466 0.0069426358 
 1963000    2.6360637   0.02458996    28372.625    984592.73 -0.0017429248 -0.0076794227  0.010509169 
 1964000    2.6509567  0.023890405    28372.625    984915.52 -0.0020969257 -0.0082277462  0.005676206 
 1965000    2.6505614  0.023437433    28372.625    985382.76 -0.00062374972 -0.0045137424 0.0065977287 
 1966000    2.6474232  0.023551574    28372.625     986118.9 -0.0006304137 -0.0059073588 0.0062633292 
 1967000    2.6503017  0.024523231    28372.625    986848.84 -0.0028441483 -0.0072451735 0.0064920431 
 1968000    2.6510617  0.023830065    28372.625    987642.29 -0.0012710784 -0.004445081 0.0049240494 
 1969000    2.6361355  0.023256897    28372.625    988433.94 -0.00048307963 -0.002944619 0.0044322296 
 1970000    2.6546304  0.023939738    28372.625     989117.6 -0.00041858222 -0.0029107416 0.0045233365 
 1971000    2.6450852  0.024086532    28372.625    989504.78 -0.002087793 0.00043315251 0.0054681785 
 1972000    2.6481257  0.024801547    28372.625    990026.63 -0.0033743674 -0.00030569234 -0.00030420884 
 1973000    2.6699498  0.023726949    28372.625     990667.3 -0.003344186 0.0020884259  0.003308554 
 1974000    2.6501308  0.023343371    28372.625     991351.3 -0.003051805 0.0012260288 0.0038909682 
 1975000    2.6496624  0.025838885    28372.625    991880.79 -0.0041049289 -0.0013279663 0.0066101698 
 1976000    2.6671897  0.024011144    28372.625    992382.49 -0.0030225363 -0.0016452698 0.0043761763 
 1977000    2.6577068  0.023187798    28372.625    993045.03 -0.0023798791 0.00037077177 0.0013417955 
 1978000     2.657181  0.024013125    28372.625    993774.92 -0.00032805693 -0.00021668494 -0.0003728521 
 1979000    2.6347755  0.024220554    28372.625     994476.7 -0.0018798006 0.00058891961 0.0013827813 
 1980000    2.6416921  0.023702516    28372.625    995125.62 -0.00024662938 -0.00043900146 0.0028342897 
 1981000    2.6495745  0.023651861    28372.625    995850.35 -0.0066308366 0.0038865343 0.0024949657 
 1982000    2.6535164  0.023429753    28372.625    996341.84 0.00099827715 0.0054800539  0.002479278 
 1983000    2.6390241  0.024222527    28372.625    996708.58 0.0042815704 0.0056776713  0.002056823 
 1984000    2.6507418  0.023564521    28372.625    996915.13 4.5303811e-06 0.0042377929 0.0029347282 
 1985000    2.6360029  0.023706675    28372.625    996854.74 -0.0010995795 0.0049023541 0.00034648976 
 1986000    2.6553376  0.023902347    28372.625    996627.61 -0.0045414063 0.0022915127 0.0046188389 
 1987000    2.6570063  0.023574473    28372.625    996285.27 4.3687804e-06 0.0015668061  0.002543234 
 1988000    2.6435329  0.023185428    28372.625    996312.15 -0.0004354376 0.0011336231 -0.00019741577 
 1989000    2.6461541   0.02345722    28372.625    996330.57 -0.0014465367 0.0013508643 -0.0010417635 
 1990000    2.6603786  0.023230879    28372.625    996279.76 0.00061807808 0.00075388162 0.0011960048 
 1991000    2.6483128  0.023427444    28372.625     996340.3 0.00022504607 -0.00078092414 0.0009883851 
 1992000    2.6378461  0.024722809    28372.625    996592.11 -0.0003264537 0.00042176886 -0.0014003553 
 1993000    2.6519662  0.023252737    28372.625    996974.24 0.00051516677 -0.0016856576 0.00010293363 
 1994000    2.6472606  0.023323582    28372.625    997540.51 0.0048917558 -0.0019833602 -0.0014238558 
 1995000    2.6505039  0.023165679    28372.625    998198.33 0.0043697802 -0.0030682934 0.00094580385 
 1996000    2.6430417  0.024496433    28372.625    998999.91 0.0094186814 -0.0030278645 0.00090979986 
 1997000    2.6458888  0.023521911    28372.625    999844.03  0.008020368 -0.0033130112 0.00054065104 
 1998000    2.6473032  0.023728833    28372.625    1000614.2 0.0050017934 -0.0013132917 0.0023839573 
 1999000     2.650228  0.023315924    28372.625    1001234.4 0.0063654343 -0.002023163 0.0026660952 
 2000000    2.6749065  0.023191163    28372.625    1001847.2 0.0057894361 -0.0011871279  0.002421693 
Loop time of 785.723 on 1 procs for 2000000 steps with 256 atoms

Pair  time (%) = 10.6981 (1.36156)
Neigh time (%) = 12.6712 (1.61268)
Comm  time (%) = 5.28381 (0.672478)
Outpt time (%) = 0.188918 (0.0240438)
Other time (%) = 756.881 (96.3292)

Nlocal:    256 ave 256 max 256 min
Histogram: 1 0 0 0 0 0 0 0 0 0
Nghost:    158 ave 158 max 158 min
Histogram: 1 0 0 0 0 0 0 0 0 0
Neighs:    128 ave 128 max 128 min
Histogram: 1 0 0 0 0 0 0 0 0 0

Total # of neighbors = 128
Ave neighs/atom = 0.5
Neighbor list builds = 158890
Dangerous builds = 4468
#	run			10000
	unfix			1
	uncompute		myKE
	uncompute		myPE
	uncompute		myStress
	uncompute		flux
	uncompute		myDis
	unfix			JJ

	next seed
	next iseed
jump lmp.in.gk loop_seed
variable iseed loop 10
variable seed index 11111 22222 33333 44444 55555 66666 77777 88888 99999 11112
clear

# Lennard-Jones
#Prepare Geometry---------------------------------------------------------------
units			lj
atom_style		atomic
read_data		lmp.in.x0.1
  orthogonal box = (0 0 0) to (30.5 30.5 30.5)
  1 by 1 by 1 MPI processor grid
  256 atoms
#Initialize Structure-----------------------------------------------------------
#mass           	1  1.0
#group         		Ar type = 1
#LJ Potentials------------------------------------------------------------------
pair_style		lj/cut 2.5
pair_coeff		* * 1.0 1.0
pair_modify          	shift yes
#pair_modify   	tail no

#Variables----------------------------------------------------------------------
#LJ Parameters
variable    	kB 		equal 1.3806504e-23 	# [J/K] Boltzmann
variable	sigma_Ar 	equal 3.4e-10 		# m
variable	eps_Ar		equal 1.67e-21		# J
variable	mass_Ar		equal 6.63e-26		# kg
variable	tau_Ar		equal 2.1423e-12	# s
#thermo Parameters
variable    	T_melt 		equal 300*(${kB}/${eps_Ar})
variable    	T_melt 		equal 300*(1.3806504000000001236e-23/${eps_Ar})
variable    	T_melt 		equal 300*(1.3806504000000001236e-23/1.6699999999999999942e-21)
variable	T_0K		equal 0.00001
variable	T_2_5K		equal 2.5*(${kB}/${eps_Ar})
variable	T_2_5K		equal 2.5*(1.3806504000000001236e-23/${eps_Ar})
variable	T_2_5K		equal 2.5*(1.3806504000000001236e-23/1.6699999999999999942e-21)
variable	T_5K		equal 5*(${kB}/${eps_Ar})
variable	T_5K		equal 5*(1.3806504000000001236e-23/${eps_Ar})
variable	T_5K		equal 5*(1.3806504000000001236e-23/1.6699999999999999942e-21)
variable	T_10K		equal 10*(${kB}/${eps_Ar})
variable	T_10K		equal 10*(1.3806504000000001236e-23/${eps_Ar})
variable	T_10K		equal 10*(1.3806504000000001236e-23/1.6699999999999999942e-21)
variable	T_15K		equal 15*(${kB}/${eps_Ar})
variable	T_15K		equal 15*(1.3806504000000001236e-23/${eps_Ar})
variable	T_15K		equal 15*(1.3806504000000001236e-23/1.6699999999999999942e-21)
variable	T_320K		equal 320*(${kB}/${eps_Ar})
variable	T_320K		equal 320*(1.3806504000000001236e-23/${eps_Ar})
variable	T_320K		equal 320*(1.3806504000000001236e-23/1.6699999999999999942e-21)

variable   	dt 		equal 0.002
variable	quench_rate	equal 1.0
variable	quench_length 	equal 10000
#kappa parameters
variable    	p 		equal 200000 		# correlation length
variable    	s 		equal 5  		# sample interval
variable    	d 		equal $p*$s 		# dump interval
variable    	d 		equal 200000*$s 		
variable    	d 		equal 200000*5 		

#SED parameters
variable	w_step		equal 2^5
variable	w_total		equal 2^16
variable	t_total		equal 2^18
variable	num_ffts	equal ${t_total}/${w_total}
variable	num_ffts	equal 262144/${w_total}
variable	num_ffts	equal 262144/65536

#------------ RUN TEMP ---------------------------------------------------------------------
variable 	T_run 		equal ${T_320K}
variable 	T_run 		equal 2.6455576526946114058
#------------ RUN TEMP ---------------------------------------------------------------------

log 	log_heat_${iseed}.lammps
log 	log_heat_5.lammps
