	reset_timestep  	0
	fix 			1 all nve
	compute   		myKE all ke/atom
	compute   		myPE all pe/atom
	compute   		myStress all stress/atom virial
	compute   		flux all heat/flux myKE myPE myStress
	variable  		Jx equal c_flux[1]/vol
	variable  		Jy equal c_flux[2]/vol
	variable  		Jz equal c_flux[3]/vol
	fix       		JJ all ave/correlate $s $p $d c_flux[1] c_flux[2] c_flux[3] type auto file J0Jt_${iseed}.dat ave running
	fix       		JJ all ave/correlate 5 $p $d c_flux[1] c_flux[2] c_flux[3] type auto file J0Jt_${iseed}.dat ave running
	fix       		JJ all ave/correlate 5 200000 $d c_flux[1] c_flux[2] c_flux[3] type auto file J0Jt_${iseed}.dat ave running
	fix       		JJ all ave/correlate 5 200000 1000000 c_flux[1] c_flux[2] c_flux[3] type auto file J0Jt_${iseed}.dat ave running
	fix       		JJ all ave/correlate 5 200000 1000000 c_flux[1] c_flux[2] c_flux[3] type auto file J0Jt_2.dat ave running
#	fix       		JJ all ave/correlate $s $p $d c_flux[1] c_flux[2] c_flux[3] type auto ave running
#	dump			JJ all custom 1000000 J0Jt.dat f_JJ[3] f_JJ[4] f_JJ[5]
	compute 		myDis all msd
	thermo_style 		custom step temp press vol c_myDis[4] v_Jx v_Jy v_Jz
	thermo			1000
	timestep		${dt}
	timestep		0.0020000000000000000416
	run			2000000
Memory usage per processor = 3.08201 Mbytes
Step Temp Press Volume myDis[4] Jx Jy Jz 
       0    2.6455989  0.023331802    28372.625            0 0.0058731731 -0.0036596568 -0.0042811753 
    1000    2.6598301  0.023265955    28372.625     30.48095 0.0057065783 -0.0037316668 -0.0054641947 
    2000    2.6535695  0.023364053    28372.625    115.10581 0.0040796812 -0.00092289169 -0.0025415615 
    3000    2.6465924  0.023039368    28372.625    244.46606 0.0039133876 -0.00087167319 0.00010237873 
    4000    2.6522073  0.023452413    28372.625    422.03488 0.0029145053 -0.0010818112 -0.0033697833 
    5000    2.6427967   0.02367749    28372.625     642.4471 0.0037611967 0.0010458859 -0.0027516059 
    6000    2.6502306  0.023400563    28372.625    899.39063 0.0022888126 0.0022717065 -0.0036559113 
    7000    2.6391449  0.023279405    28372.625    1187.7914  0.003435946 0.0020619816 -0.0026055343 
    8000    2.6401253   0.02413734    28372.625     1505.711 0.0030396416 0.0058410065 -0.0029771816 
    9000    2.6428809  0.023114241    28372.625    1826.2385 0.0047716991 0.0056993769 -0.0035386269 
   10000    2.6275061  0.023954704    28372.625    2170.0727 0.0033386787 0.0022584628 -0.004305228 
   11000    2.6375965  0.024512378    28372.625    2524.4324 0.0052212235 0.00081979471 -0.0035161798 
   12000    2.6117293  0.025052788    28372.625    2880.8367 0.0050366586 0.0031189867 -0.0036549153 
   13000     2.638716  0.023488129    28372.625    3252.1078  0.006855582 0.0027777477 -0.0044819816 
   14000    2.6388937   0.02325099    28372.625    3640.6423 0.0058347697 0.0012962673 -0.0041180344 
   15000    2.6407015  0.023940564    28372.625     4036.415 0.0065357155 -0.0012733877 -0.0052844751 
   16000    2.6299427  0.024817703    28372.625    4405.9121 0.0057147134 -0.0023567821 -0.0045656077 
   17000    2.6402371  0.023207113    28372.625    4780.8759  0.005952548 -0.0010640885 -0.00053848496 
   18000    2.6449378   0.02360405    28372.625     5183.785 0.0064361941 -0.0023992086 -0.0020810796 
   19000    2.6487209  0.023913908    28372.625    5616.8102 0.0011876639 -1.9430407e-05 0.0025518105 
   20000    2.6422608  0.023612444    28372.625    6057.8609 0.0037671017 -0.00068211919 0.0027982411 
   21000    2.6375566  0.024568146    28372.625    6487.8143 0.0014635517 -0.003007585 0.0031977155 
   22000    2.6482234  0.023453283    28372.625    6929.9972  0.000785829 -0.0028643935 0.0055429196 
   23000    2.6426951  0.023768421    28372.625    7380.9994  0.001184109 -0.0043446366 0.0056024752 
   24000    2.6422586  0.024149228    28372.625    7839.9472 0.0040585072 -0.0043235264 0.0055732354 
   25000    2.6288337  0.023662587    28372.625     8286.975 0.00081061026 -0.0007188795  0.007929463 
   26000    2.6243971   0.02424124    28372.625    8700.8214 -0.0004315326 0.0012458063 0.0074267847 
   27000    2.6289732  0.024491625    28372.625    9139.4496 0.0014734043 0.0009412794 0.0087315597 
   28000    2.6408018  0.023167064    28372.625    9592.7676 0.00017571823 -0.00041383787 0.0061790407 
   29000    2.6493122  0.023590847    28372.625    10082.633 0.00017456747 0.0002953088 0.0086877749 
   30000    2.6460848  0.023197014    28372.625    10589.086 -0.0017171894 0.0012171603 0.0096862547 
   31000    2.6425521  0.023699261    28372.625    11093.915 -0.001389517 0.00077519255 0.0061769319 
   32000    2.6463808  0.023120946    28372.625     11578.28 0.0015812887 0.0019290999 0.0022399875 
   33000    2.6381451  0.023182472    28372.625    12024.585 0.0027769962 0.0018631398 0.0037199489 
   34000    2.6353265  0.023427046    28372.625    12511.069 0.0020792269 -0.00027629604 0.0049590286 
   35000    2.6400517  0.023385151    28372.625    13015.733 0.0055635702 0.0021481329 0.0015862313 
   36000    2.6382546  0.023578746    28372.625    13541.226  0.006173637 0.00080487538 0.0015182417 
   37000    2.6496954  0.023258683    28372.625    14063.897 0.0053920413 0.0023101002 0.00090391042 
   38000    2.6434083    0.0236363    28372.625    14579.744 0.0058580019 0.0015807489 -0.002523689 
   39000    2.6462354  0.023706613    28372.625    15092.435 0.0064590149 0.0027047044 -0.00038925662 
   40000    2.6417856  0.023539737    28372.625    15632.988 0.0054059252 0.0014266006 -0.0028675086 
   41000    2.6455025  0.023442053    28372.625    16194.666 0.0066820752 -0.00049222416 -0.0017468632 
   42000    2.6446938  0.023595495    28372.625    16769.564 0.0059172329 -7.6460902e-05 -0.0015627829 
   43000    2.6414278  0.025065865    28372.625    17356.028 0.0070259821 0.0011881656 -0.0048891657 
   44000    2.6445458  0.023264288    28372.625     17951.91 0.0064206196 -0.00045205896 -0.0018799945 
   45000    2.6330874  0.023179721    28372.625    18558.932 0.0061509542 -0.0017830865 -0.0018885408 
   46000    2.6458281  0.023608578    28372.625    19190.092 0.0063763481 -0.00069241728 -0.0032182651 
   47000    2.6385015  0.023516058    28372.625    19800.323 0.0023749945 0.00026951804 -0.0034343672 
   48000    2.6521609  0.023532854    28372.625    20412.086 -0.00063416511 -0.0031407443 -0.0096413999 
   49000    2.6313023  0.023348277    28372.625    21006.917 0.0012364663 -0.0010686472 -0.0094866667 
   50000    2.6411191  0.023560558    28372.625    21581.804 0.0012304748 -0.0013278333 -0.010013136 
   51000    2.6458867  0.023348857    28372.625    22154.543 0.0018208226 -0.0036868305 -0.008216903 
   52000    2.6582277  0.023628859    28372.625    22755.942 0.0026140548 -0.0041251653 -0.0086222698 
   53000    2.6545104  0.023650058    28372.625     23316.55 0.0036554861 -0.0032572561 -0.006384692 
   54000    2.6519899  0.023343686    28372.625    23846.262 0.0053768086 -0.0028480678 -0.0013564525 
   55000     2.644266  0.023726606    28372.625    24389.044 0.0064678051 -0.0017076929 -0.00045378652 
   56000    2.6359816  0.023222072    28372.625    24926.281 0.0057545028 -0.0034032238 -0.00010716012 
   57000    2.6425803  0.023182566    28372.625    25469.138 0.0072277085 -0.0033829681 -0.0010584239 
   58000    2.6534799  0.023324586    28372.625    26036.223 0.0056838917 -0.0021391582 -0.0008571793 
   59000    2.6357164  0.023967674    28372.625    26617.463 0.0030140244 -0.0012159408 -0.002319039 
   60000    2.6597082   0.02346116    28372.625    27211.349 0.0040133637 -8.7029691e-05 -0.0047916086 
   61000    2.6518345  0.023315912    28372.625    27827.964  0.003033165 0.0018050746 -0.0024383979 
   62000    2.6269636  0.025185729    28372.625    28406.248 0.0055412813 0.0018395522 -0.0044429842 
   63000    2.6394556  0.023480737    28372.625     28971.37 0.0018550115 0.0011774799 -0.0033918636 
   64000    2.6274269  0.025437902    28372.625    29490.212 -0.001240595 -0.0030741098 -2.5688493e-05 
   65000     2.641014  0.023408769    28372.625    29960.887 -0.0018842779 -0.0020200755 0.0006677318 
   66000    2.6435103  0.023420165    28372.625      30425.3 -0.00063266257 -0.0036340307 -0.00030592742 
   67000     2.640103  0.024514672    28372.625     30927.31 0.0023201857 -0.004506265 0.0010151865 
   68000    2.6441901  0.023416616    28372.625    31465.751 -0.00054086742 -0.0037881814 -0.0042403967 
   69000    2.6422316  0.023456118    28372.625    32000.013 0.0019456593 -0.00076169876 -0.0060994529 
   70000     2.651732  0.023646313    28372.625    32539.669 0.0018246013 -0.0010192754 -0.0071357432 
   71000    2.6511984  0.023098005    28372.625      33032.2 0.0049083663 -0.0029093744 -0.0034033087 
   72000    2.6352503  0.024185165    28372.625     33530.61  0.001723263 -0.0039454103 -0.0038890999 
   73000    2.6431451  0.023806005    28372.625    34049.791   0.00276346 -0.0029302088 -0.0045260001 
   74000    2.6435216  0.023103128    28372.625    34572.177 0.0043603229 4.0254994e-05 -0.004906616 
   75000    2.6421806  0.023019656    28372.625    35106.929 0.0012724648 0.0013562354 -0.004531624 
   76000    2.6393138  0.023075312    28372.625    35657.276 -0.00099243026 0.00052491377 -0.0018525691 
   77000    2.6436654  0.023591073    28372.625    36196.025 0.0025402429 0.0008735349 -0.0024567203 
   78000    2.6409967  0.023537683    28372.625    36751.533 0.0025640759 0.0020344049 -0.0020812517 
   79000    2.6291886  0.023211058    28372.625    37300.626 0.0033826034 0.00032075699 -0.0015532672 
   80000      2.63801  0.024166614    28372.625    37877.249 0.0061110934 0.0010949744 -0.0020547361 
   81000    2.6570012   0.02330285    28372.625    38475.424 0.0040336218 -0.0016119149 -0.00093092167 
   82000    2.6540633  0.023916171    28372.625    39087.892 0.0046403438 -0.0019165989 0.0020712046 
   83000     2.637019  0.024304209    28372.625     39722.84 -0.0010453353 0.00015843267 0.0046865388 
   84000    2.6485778  0.024209386    28372.625    40353.659 0.0016916885 0.0021666993 0.0031543409 
   85000    2.6380488  0.023976702    28372.625    40990.302 0.0016806005 -0.0051568044 0.0049118094 
   86000    2.6434478  0.023339989    28372.625    41628.761 0.00093617518 -0.0041824693 0.0015892229 
   87000     2.632517  0.023660523    28372.625     42204.47 0.0010353571 -0.0041658948 0.0023426869 
   88000    2.6379582  0.023337811    28372.625     42704.85 -4.4918319e-05 -0.0054816145 0.00094011598 
   89000    2.6401661   0.02379334    28372.625    43158.221 0.0026960215 -0.0069296381 0.00056857608 
   90000    2.6416412  0.023460492    28372.625    43568.706 0.0012926571 -0.007597172 0.0012298384 
   91000    2.6436844  0.023953505    28372.625    43989.396 -0.00038044426 -0.0097360187 -0.0016187588 
   92000    2.6334361  0.024338747    28372.625    44389.466 0.0028774145 -0.0064090714 0.0016182672 
   93000    2.6332793  0.024425998    28372.625    44788.278 0.0046407437 -0.0044089059 0.0061240065 
   94000    2.6482399  0.023309421    28372.625    45136.983 0.0048428406  -0.00877731 0.0019146308 
   95000    2.6340414  0.025222176    28372.625    45556.757 0.0048016427 -0.0064451216 0.0017174533 
   96000    2.6243318  0.024766859    28372.625    45997.958 0.0099687299 -0.0083798333 0.00096698976 
   97000    2.6422182  0.023296836    28372.625    46443.541 0.0060834514 -0.004766168 -0.0036213222 
   98000    2.6449181  0.023697687    28372.625    46823.389 0.0055538748 -0.0053999504 -0.0025930366 
   99000      2.63274  0.024723792    28372.625    47153.533 0.0067866779 -0.003782964 -0.00097328559 
  100000    2.6392335  0.023877034    28372.625    47428.788 0.0074524372 -0.0020970755 -0.0019647492 
  101000    2.6305992  0.024142052    28372.625    47699.408 0.0065789523 -0.0029308559 -0.0010257468 
  102000    2.6472138  0.023424525    28372.625     48055.55 0.0066747672 -0.0029039842 0.0013682768 
  103000    2.6378734  0.023313312    28372.625    48470.415 0.0064635829 -0.0023739104 0.0028759096 
  104000    2.6506564  0.023695682    28372.625    48941.342 0.0082133908 -0.0020018569 0.0043630646 
  105000    2.6414805  0.023579147    28372.625    49365.894  0.011571646 -0.0028910587 0.0039530643 
  106000    2.6442641   0.02327453    28372.625    49763.381  0.011193639 0.00029756586 0.0055898248 
  107000    2.6352869  0.025005628    28372.625    50210.276 0.0072394293 0.0016718211 0.0057689132 
  108000    2.6475176  0.023986749    28372.625    50657.542 0.0057070516 0.0038594993 0.0038994009 
  109000    2.6364423  0.024585217    28372.625    51068.338 0.0028412139 0.0062763357 0.0044623776 
  110000    2.6339081  0.023418559    28372.625    51512.256 0.0021538853 0.0021057534 0.0058046393 
  111000    2.6472826  0.023857851    28372.625    51956.308 0.0010183467 0.00016123968 0.0047813877 
  112000     2.643073  0.023328153    28372.625    52383.722 0.0019703035 -0.001484157 0.0044494955 
  113000    2.6430423  0.023772058    28372.625    52791.268 0.0025305979 -0.00021193219 0.0062476627 
  114000    2.6384626  0.024238613    28372.625    53187.591 0.00065185109 0.00097964744 0.0058285618 
  115000    2.6440986  0.023320097    28372.625    53625.849 -0.0017118503 0.0011545979 0.0028556435 
  116000    2.6511614   0.02336463    28372.625    54104.298 -0.0053063195 0.0015905533 0.0030937208 
  117000    2.6422417  0.024171163    28372.625    54579.748 -0.0032799372 0.0018985911 0.0024637224 
  118000    2.6489354  0.023299654    28372.625    55047.566 -0.0038897191 0.0013696944 -0.00027094792 
  119000    2.6229674  0.024352914    28372.625    55522.235 -0.0061020056 -0.0081930298 0.0045932708 
  120000    2.6436413  0.023903608    28372.625    55944.732 -0.0057146434 0.00017543263 -0.0035217253 
  121000    2.6538255  0.023229666    28372.625    56316.952 -0.0079936419 -0.00026898776 -0.0012862365 
  122000    2.6427334  0.023624806    28372.625    56695.626 -0.0065770076 0.00035944881  0.001459058 
  123000    2.6335538  0.024371213    28372.625    57121.253 -0.0054188361 -0.0001264812 0.00010379672 
  124000    2.6483541  0.024743435    28372.625    57476.269 -0.0046465357 -0.0020409636  0.002819996 
  125000    2.6453609  0.023414334    28372.625     57855.07 -0.0081612627 -0.0046001177 0.0005611195 
  126000    2.6615433  0.023270179    28372.625    58260.822 -0.009047284 -0.0041076318 5.5661964e-05 
  127000    2.6515545  0.023173203    28372.625    58597.324 -0.0079901961 -0.0049713346 -0.0036893941 
  128000    2.6353696  0.024462862    28372.625    58935.188 -0.006912911 -0.0049381402 0.00067199288 
  129000    2.6431184  0.023400341    28372.625    59283.599 -0.0085641494 -0.0024507913 0.0011377195 
  130000    2.6238228  0.024514603    28372.625    59663.663 -0.0035739752 -0.008564329 -0.0020278449 
  131000    2.6555133  0.023461129    28372.625    60005.894 -0.005840118 -0.0036098721  0.001716584 
  132000     2.644588  0.024311801    28372.625    60321.709 -0.0082375926 -0.003368698 0.0035481291 
  133000    2.6575399  0.023233603    28372.625    60695.537 -0.0037650347 -0.001983372 0.0024038669 
  134000    2.6429709  0.023331787    28372.625    61120.034 -0.0028327915 -0.0014424614  0.002427802 
  135000    2.6407371  0.023319617    28372.625    61593.035 -0.0040842005 -0.0010691885 0.0014350857 
  136000    2.6489138   0.02349012    28372.625    62110.277 -0.0018287808 0.00035111384 0.0018397445 
  137000    2.6493289  0.023111428    28372.625     62646.62 -0.0010094111 0.0031557184 0.0017174768 
  138000     2.634713  0.023795931    28372.625    63197.758 -0.002256421 0.0020483308 0.0019570039 
  139000     2.635908  0.023654678    28372.625    63683.003 -0.003308188 0.0020406005 0.0035254311 
  140000    2.6329571  0.024846749    28372.625    64127.552 0.0016053957 0.0018207014  0.001039449 
  141000    2.6476188  0.023901063    28372.625    64541.799 0.00012107795 0.0040905183  0.001469627 
  142000    2.6483916  0.023648309    28372.625    64974.782 0.00031365372 0.0029960454 0.0035373972 
  143000    2.6377295  0.024036988    28372.625    65431.638 0.0032962131 -0.00026728432 0.0012791004 
  144000    2.6460922  0.023638723    28372.625    65948.144 0.0011558475 -0.001108305 0.0020970248 
  145000     2.640591   0.02376679    28372.625    66469.219 0.0039555944 -0.0071336137 0.0033382514 
  146000    2.6413394  0.023385542    28372.625     67009.98 0.00017910158 -0.0047245462 0.0015897861 
  147000    2.6395424  0.023325592    28372.625    67583.076 0.00066425467 -0.004893582 -0.00018957747 
  148000    2.6388315   0.02308641    28372.625    68216.281 -0.0013712867 -0.0044386826 -0.0039141174 
  149000    2.6368633  0.023614966    28372.625    68910.278 -0.0016819981 -0.0052553115 -0.0012402709 
  150000    2.6489796   0.02369618    28372.625    69552.774 7.4559909e-05 -0.006543372 0.00050796965 
  151000    2.6422735  0.023785373    28372.625    70195.926 -0.0021858628 -0.0061969689 0.00026662532 
  152000    2.6279841  0.024034484    28372.625    70833.896 -0.00087112389 -0.0059011432 0.0011832606 
  153000    2.6321187  0.023704523    28372.625    71398.669 -0.0024292965 -0.0052361645 0.00063694758 
  154000    2.6492431   0.02331482    28372.625    71989.038 -0.0024719106 -0.0054932572 -0.0020085901 
  155000    2.6448565  0.024506278    28372.625    72574.426 -0.0056805944 -0.0028027199 -0.00046801829 
  156000    2.6487438  0.023754577    28372.625    73170.984 -0.0047537697 -0.0072305406 -0.00059906732 
  157000    2.6415447  0.024158077    28372.625    73727.275 -0.0018349125 -0.0091842304 -0.0026591308 
  158000    2.6406258  0.023699695    28372.625    74290.801 -0.0012131155 -0.0049071655   0.00111258 
  159000    2.6493243  0.023796786    28372.625    74766.385 0.00064495808 -0.0028145679 -0.001722867 
  160000    2.6566802  0.023487004    28372.625    75188.267 0.0015788949 0.00033239322 -0.0023202792 
  161000    2.6431742  0.024607398    28372.625    75624.304 0.0042502012 0.0023355356 -0.0025681295 
  162000    2.6403355  0.023248879    28372.625    76073.325 0.0034238653 0.0034608419 -0.00072309033 
  163000    2.6521367   0.02372522    28372.625    76617.211 0.0047505703 0.0049749135  0.001314436 
  164000    2.6514984  0.023835768    28372.625    77120.577 0.0067962838  0.004327599 0.0042970318 
  165000    2.6463952  0.023412723    28372.625    77580.963 0.0043338227 0.0019476818 0.0043953894 
  166000    2.6473941  0.023469837    28372.625    78012.664 0.0028783819 0.0030223767 0.0050720085 
  167000    2.6324665  0.024731502    28372.625    78463.471 -0.0028051677 0.0020599568 0.0034051557 
  168000    2.6398618  0.023208139    28372.625    78978.262 0.00099690151 -8.6967092e-05 0.00070553184 
  169000    2.6411249  0.023782231    28372.625    79562.104 0.0031495544 -0.0020770255 0.0009081316 
  170000    2.6458891   0.02363335    28372.625    80139.256 -0.00079703001 -0.0015310303 0.0025955684 
  171000    2.6438512  0.023138474    28372.625    80688.785 0.00033012568 -0.0013272786 0.0016174671 
  172000    2.6399268  0.024065827    28372.625    81280.101 0.0024347481 -0.00099836616 0.0024754325 
  173000    2.6456824  0.023463817    28372.625      81882.7 0.00013943527 0.00042514819 0.00094657699 
  174000    2.6560821  0.023166327    28372.625    82509.008 0.0011604782 0.0019976541  0.004360499 
  175000    2.6386875  0.024166214    28372.625    83186.172 -0.00044071581  0.001188546 0.0047627301 
  176000    2.6251745  0.025129166    28372.625    83827.423 0.0018962843 -0.0013773655 -0.0012960551 
  177000    2.6582449  0.023823274    28372.625    84417.184  0.003312703 -0.00076334218 0.00088314571 
  178000    2.6414959  0.024091859    28372.625    84993.105 0.0049213335 0.0012264968 0.0035807378 
  179000    2.6385519  0.023991059    28372.625    85606.783 0.0043527477 0.0025843646 0.0031816183 
  180000    2.6685222  0.024045006    28372.625    86131.292 0.0034285345 0.0034373025 0.0057366369 
  181000    2.6448562  0.023705997    28372.625    86642.546 0.0048032131 0.0042870881 0.0032275124 
  182000    2.6302108  0.024550237    28372.625    87118.893  0.005986907 0.0054375735 0.0025744419 
  183000    2.6427036  0.023359127    28372.625    87559.568 0.0044466148 0.0039702963 0.0050092979 
  184000    2.6307514  0.024237973    28372.625     88024.87 0.00098310653 0.0047422581 0.0068090563 
  185000     2.642255  0.023592831    28372.625    88537.438 0.0030601968 0.0039904068 0.0026546713 
  186000    2.6470357  0.023783847    28372.625    89029.731  -0.00126031 0.0033759724 0.0013684887 
  187000    2.6415841  0.023702344    28372.625     89541.06 0.0049243063 0.0031463126 0.0017271155 
  188000    2.6496288  0.023354784    28372.625    90032.482 0.0052844931 0.00044820143 -0.0017233867 
  189000    2.6343517  0.024235327    28372.625    90517.091 0.0052204735 0.00071216513 0.00081652918 
  190000    2.6457907  0.023797645    28372.625    91042.234  0.005449358 0.00040336221 0.0013043557 
  191000      2.64274  0.023821319    28372.625     91418.23 0.0074129498 0.0032220011 -0.0047501092 
  192000    2.6457264  0.024335263    28372.625    91720.682 0.0040890429 -0.005017796 0.0030982284 
  193000    2.6358238  0.024604318    28372.625    92045.538 0.0051487025 -0.00087513876 -0.0006477858 
  194000    2.6395647  0.023327434    28372.625    92249.827 0.0071597941 -0.0036497959 0.0013652989 
  195000    2.6431384  0.024102842    28372.625    92606.913 0.0081481902 -0.0042685806 0.0050768472 
  196000    2.6374569  0.023106448    28372.625    93030.104 0.0069723127 -0.0041023381 0.0056099599 
  197000    2.6462753  0.023245005    28372.625    93419.068 0.0034325273 -0.0055055013  0.005676619 
  198000    2.6427151  0.023516609    28372.625    93797.428 0.0032157383 -0.0086196812 0.0042162372 
  199000    2.6399565  0.024141623    28372.625    94249.824 0.0024352428 -0.010249435 0.0041325446 
  200000    2.6387014  0.023278827    28372.625    94644.856 7.8897878e-05 -0.0095313295 0.0037157197 
  201000    2.6348117  0.023785006    28372.625    94981.086 -0.00090171238 -0.0097986849 -5.3408809e-05 
  202000    2.6318347    0.0236619    28372.625    95442.604  0.003466996 -0.0057761393 0.0020857657 
  203000    2.6469884   0.02332361    28372.625    95914.622  0.002326814 -0.0021087815 0.0014953003 
  204000    2.6364712  0.024020116    28372.625    96417.895 -0.0014077988 -0.0028372295 0.0034185829 
  205000    2.6402938  0.023528927    28372.625    96932.174 0.0013941683 -0.0019737969 0.00025769665 
  206000    2.6287102  0.024195719    28372.625    97375.522  0.001382723 -0.0049045652 -0.00014502425 
  207000    2.6432957  0.023880756    28372.625    97785.079 0.0011924061 -0.0024123493 -7.2470386e-05 
  208000    2.6402914  0.024006659    28372.625    98200.449 0.0025281423 -0.0032804783 0.00011067608 
  209000     2.633829   0.02439039    28372.625    98603.119 -0.0012614533 -0.0049130371 0.0029255614 
  210000    2.6427364  0.022975091    28372.625    99003.506 -0.0025528697 -0.002915027 0.0014321475 
  211000    2.6365503  0.023177628    28372.625    99397.732 -0.0015178815 -0.0015216125 0.00030157267 
  212000     2.639705  0.023855022    28372.625     99792.52 -0.0014479245 -0.0023699502 -0.00077338438 
  213000    2.6328092  0.024063327    28372.625    100247.91 0.00079418062 -0.0047333345 -0.00080783317 
  214000    2.6412304  0.024486596    28372.625    100780.19 0.0013534049 -0.0039232597 -0.0017980071 
  215000    2.6526988  0.023228727    28372.625    101347.19 0.00068920924 -0.0035388263 0.00076980986 
  216000    2.6446226  0.023501743    28372.625    101910.29 0.00080698591 -0.0031577858 0.00016100497 
  217000    2.6348918  0.023184455    28372.625    102578.38 0.0021323767 -0.002538081 -0.004097919 
  218000    2.6394568  0.024184916    28372.625    103225.46 0.00053744695 0.00054344703 -0.0043361469 
  219000    2.6312609  0.023711837    28372.625    103803.24 0.0014331701 -0.0010630845 -0.0061003851 
  220000    2.6393824  0.024352564    28372.625    104371.39 0.0025121724 0.0010540282 -0.0038052471 
  221000      2.65039  0.023575269    28372.625    104925.94 0.00075069431 0.00087778772 -0.0060143423 
  222000    2.6454492  0.023578639    28372.625    105324.34 0.0020629906 0.0014592653 -0.0034600737 
  223000    2.6428123  0.023553123    28372.625    105705.65 0.0040730564 0.0010081548 -0.0016614034 
  224000    2.6426817  0.023295858    28372.625    106032.17 0.0015687631 0.0016400782 -0.00035263307 
  225000    2.6355119  0.023126845    28372.625    106391.47 0.0023664459 -0.0011215326 -0.0008641259 
  226000    2.6353498  0.023292668    28372.625    106786.87 0.0011634989 -0.00040890981 -0.0019618526 
  227000    2.6441538  0.023233661    28372.625    107256.82 0.0025706799 -0.0016126762 -0.0020717425 
  228000    2.6548824  0.023517027    28372.625    107750.18 0.0029134682 0.00034987886 -0.0068860463 
  229000      2.64924  0.023308885    28372.625    108212.94 0.0060775888 -0.0017796942 -0.0040498193 
  230000    2.6340327  0.023877592    28372.625    108691.52 0.0063853242 -0.0020688619 -0.0041963092 
  231000    2.6414407   0.02379183    28372.625    109238.88 0.0035597467 -0.0038629725 -0.0035039672 
  232000    2.6410129  0.023463522    28372.625     109776.1 0.0026416218 -0.005157861 -0.002916418 
  233000    2.6439847  0.023579222    28372.625     110290.4 0.0033454555 -0.0022746217 -0.0052914635 
  234000    2.6413042  0.023108647    28372.625    110764.14 0.0021187509 -0.0030662205 -0.0030960437 
  235000    2.6234481  0.024722373    28372.625    111152.64 0.0016221607 -0.003031132 -0.0037948916 
  236000    2.6456974  0.023579317    28372.625    111580.25 -0.0023440805 -0.0033368245 -0.006447372 
  237000    2.6451977  0.023429776    28372.625    112091.45 -0.0037929195 -0.003677342 -0.0063291006 
  238000      2.63423  0.025427929    28372.625    112600.75 -0.0012448456 -0.0083391507 -0.0030150997 
  239000    2.6511192  0.023913521    28372.625    113048.22 0.00060223927 -0.0045673067 -0.00033185206 
  240000    2.6493705  0.023390307    28372.625    113454.26 -0.0036198919 -0.0025130372 0.0028852076 
  241000    2.6530787  0.024126969    28372.625    113903.01 -0.0027295426 -0.0052546111 0.0062089101 
  242000    2.6505507  0.023295217    28372.625    114360.12 -0.0018749233 -0.002716588 0.0059941627 
  243000    2.6320452  0.024650814    28372.625    114856.84 -0.0026878847 -0.0027572589 0.0067764455 
  244000    2.6415072  0.023698518    28372.625    115412.29 -0.0050135868 -0.0041663624 0.0063974175 
  245000     2.651093  0.023654376    28372.625    116023.81 -0.0023315215 -0.0029317543  0.012289985 
  246000    2.6603286  0.023506041    28372.625     116534.6 -0.0013521174 -0.0012806295 0.0079642826 
  247000    2.6545638  0.023468943    28372.625    117099.61 -0.00035164058 -0.0015313206 0.0084113892 
  248000     2.661714  0.023698771    28372.625    117609.18 -0.0024077971 -0.0014994876 0.0054170235 
  249000    2.6616866  0.023267881    28372.625    118022.54 -0.0011302384 -0.0020684279 0.0041719639 
  250000    2.6479876   0.02351768    28372.625    118448.11 -0.0026212674 -0.0013606678 0.0040889061 
  251000    2.6474985   0.02343945    28372.625       118869 -0.0031342716 -0.0028195392 0.0017711249 
  252000    2.6329716  0.024849897    28372.625    119355.67 -0.0030717847 0.00097322379 -0.0017007584 
  253000    2.6502079  0.022910917    28372.625    119828.18 -0.0026373483 -0.00092086223 3.9559124e-05 
  254000    2.6428458  0.023646235    28372.625    120242.45 -0.00055101599 -0.0017772671 -9.4139418e-05 
  255000    2.6552216  0.023412022    28372.625     120729.4 -0.0021563038 -0.0015843127 -0.0012089156 
  256000    2.6424506  0.024210848    28372.625    121302.31 0.0013772521 -0.0029303236 -0.0028908661 
  257000    2.6435189  0.023301464    28372.625    121932.33 0.0011592343 -0.0021693716 -0.0033410235 
  258000    2.6407875  0.023856578    28372.625    122643.25 0.0021320108 -0.00084004421 -0.0011837635 
  259000    2.6394979  0.023616024    28372.625    123278.29 0.0016332627 -0.0010937586 -0.0015072369 
  260000    2.6351124  0.024339535    28372.625    123824.77 0.0030669571 -0.0032708925 -0.002020008 
  261000    2.6404681  0.023461906    28372.625     124429.4 0.0043955412 -0.0054914042  -0.00187567 
  262000    2.6446005  0.023240879    28372.625    124990.65 0.0039283084 -0.0052213053 -0.00015161622 
  263000    2.6478628  0.023048535    28372.625    125628.89  0.003255504 -0.0060699047 -0.00076134746 
  264000    2.6461777  0.023055093    28372.625    126259.63 0.0023563563 -0.0047685386 -0.0002050399 
  265000    2.6495515  0.023466122    28372.625    126799.29 0.0013740032 -0.0016810392 -0.0015413986 
  266000    2.6319747  0.023665977    28372.625    127330.63  0.006773858 -0.0033940597 -0.0011907621 
  267000    2.6362774  0.023643928    28372.625    127887.48 0.0069110707 -0.0055830987 -0.0031584698 
  268000    2.6408742  0.023639427    28372.625    128370.91 0.0080788368 -0.0062913042 -0.0004583187 
  269000    2.6356021  0.023431688    28372.625    128715.14 0.0096957966 -0.0067252753 -0.0017717374 
  270000    2.6564446  0.023285287    28372.625     129020.6 0.0092080197 -0.0050261142 -0.00079532269 
  271000     2.642497  0.023334331    28372.625    129307.11 0.0091174251 -0.0055440473 -0.0012562414 
  272000    2.6495375  0.023280942    28372.625    129613.38 0.0078238459 -0.0048267682 -0.0011320867 
  273000    2.6461828  0.023253662    28372.625    129944.73 0.0064706449 -0.0020721778  0.001071312 
  274000    2.6330029  0.023243715    28372.625    130239.08 0.0025527312 -0.0023066075  0.002936715 
  275000    2.6529516  0.023191613    28372.625    130559.75 0.0022170446 -0.0025073785 0.0043143212 
  276000    2.6365569  0.023683927    28372.625    130869.32  0.003344898 -0.002995938 0.0025610054 
  277000    2.6308464  0.023298754    28372.625    131225.06 0.0022886046 -0.003110422 0.0037000681 
  278000    2.6227016   0.02506517    28372.625    131586.15 0.00018421656 -0.0031565275 -0.00060612959 
  279000    2.6367613  0.023751292    28372.625    131899.16 -0.00029662235 -0.0044519233   0.00307761 
  280000    2.6397457  0.024311143    28372.625    132227.58 -0.0018930132 -0.0055642183 0.0012847771 
  281000    2.6401536  0.023300686    28372.625    132632.86 0.0014741145 -0.0068795163  0.002647711 
  282000    2.6334903  0.023580927    28372.625    133160.96 -0.0023809497 -0.0066482063 0.0021324655 
  283000    2.6448598  0.023537875    28372.625    133702.09 -0.0022698958 -0.0043672368 0.0024121147 
  284000    2.6446661  0.023836557    28372.625    134235.27 -0.0042880107 -0.0047173397 0.0016771362 
  285000    2.6441493  0.023676569    28372.625    134752.78 0.0013261685 -0.0060387824 0.0014176612 
  286000    2.6470845   0.02322099    28372.625    135165.62 -0.0018027018 -0.0038189789 0.0040611128 
  287000    2.6615888  0.023076795    28372.625    135650.26 -0.00031760408 -0.0026255088 0.0041107776 
  288000     2.653928  0.023623159    28372.625    136113.67 0.0025242597 -0.0063390204 0.0014620944 
  289000    2.6579982  0.024185033    28372.625    136626.38 -0.0019945358 -0.0095889009 0.0029629463 
  290000     2.651413   0.02334709    28372.625    137001.72 -0.0032599008 -0.0044107275 0.0016018066 
  291000    2.6243418  0.024178113    28372.625    137321.79 -0.0026946761 -0.0058068289 0.0019920497 
  292000     2.644016  0.023686639    28372.625    137741.96 -0.0051232859 -0.0059220857 0.0038004443 
  293000    2.6307237    0.0235832    28372.625    138115.03 -0.0070097828 -0.0062772286 0.0058318671 
  294000    2.6428228  0.023279321    28372.625    138436.34 -0.0063777888 -0.0081069374 0.0055185032 
  295000    2.6485509  0.023816133    28372.625    138801.84 -0.0065081926 -0.006743625 0.0045110798 
  296000    2.6474645  0.024038663    28372.625    139205.46 -0.002357352 -0.0024827853 0.0049211975 
  297000    2.6368484   0.02433455    28372.625    139571.96 -0.00076279703 -0.0020799357 0.0049219261 
  298000    2.6446876  0.024129617    28372.625    139970.58 -0.00048337331 -0.0019489202 0.0080437092 
  299000    2.6536581  0.023430722    28372.625    140445.29 0.0012253211 -0.0031209123 0.0039488306 
  300000    2.6484712  0.023757278    28372.625    140968.13 -0.0018823365 -0.0017926362 0.0047265177 
  301000    2.6367703  0.023967836    28372.625    141476.45 -0.0010007879 0.00058190354 0.0015803653 
  302000    2.6376072  0.023641563    28372.625    141986.77 -0.0041447361 0.0020324768 0.0016238787 
  303000    2.6515368  0.023847663    28372.625    142513.02 -0.0028409017 -0.0031589082 0.0030873928 
  304000    2.6501094  0.023610691    28372.625     142918.3 -0.0037020856 -0.0008259741 -0.0023546229 
  305000    2.6217172  0.025855402    28372.625    143186.76 -0.0012168885 -0.0081210943 -0.0065515253 
  306000    2.6324679  0.023576176    28372.625     143525.4 -0.0040065302 -0.0031783293 0.00023665083 
  307000    2.6376058   0.02369771    28372.625    143809.84 -0.0029232932 -0.0038733293 -0.0029558624 
  308000    2.6464156  0.023402936    28372.625     144079.7 -0.003574002 -0.0032860822 -0.0011748676 
  309000    2.6479045  0.023811898    28372.625    144411.27 5.7453238e-05 -0.0031630574 -0.0024653925 
  310000    2.6474827  0.023445562    28372.625    144822.34 -0.00046453504 -0.0075800061 -0.002485026 
  311000    2.6444354   0.02352262    28372.625    145153.41 -0.0003596209 -0.0040301317 -0.0010548556 
  312000    2.6492906  0.024143305    28372.625    145484.57 0.0015343033 -0.001752583 -0.0010220007 
  313000    2.6457807  0.023080151    28372.625    145795.01 0.0027970658 -0.00030432054 0.0004615814 
  314000    2.6399309  0.023494825    28372.625    146134.76 0.0026443242 -0.0015088719 0.0011296646 
  315000     2.647028  0.023450015    28372.625    146487.65 0.0038970723 -0.0026147047 -0.0010788535 
  316000    2.6347853  0.023932567    28372.625    146755.53 0.0035309832 0.00084115551 -0.0016920625 
  317000    2.6380006  0.023062682    28372.625    147009.17 0.0040582481 4.0183408e-05 -0.0016728644 
  318000    2.6309406   0.02391178    28372.625    147268.82 0.00059712951  0.001587056 -0.0012258299 
  319000    2.6506236    0.0236746    28372.625    147470.26 0.0011764888 -0.00012657349 0.00064936806 
  320000    2.6451739  0.023259186    28372.625    147680.25 -0.00031460042 0.0016356701 0.0029054005 
  321000    2.6494582  0.023856359    28372.625    147916.11 -0.00027964473 0.00084285182 0.0044811206 
  322000    2.6393192  0.024293789    28372.625    148143.36  0.001117981 0.0040601287 0.0052576645 
  323000    2.6432082  0.023331208    28372.625    148391.83 0.0020884099 0.0028015247 0.0045583639 
  324000    2.6432842  0.023175002    28372.625     148635.8 0.0025331493 0.0028904663 0.0039359122 
  325000    2.6430446  0.023372262    28372.625    148961.79 0.0011353363 0.0022049834 0.0043785437 
  326000      2.63774  0.023463158    28372.625    149439.47 0.0020843426 0.00098244796 0.0036144631 
  327000    2.6374477  0.023893868    28372.625    150065.32 0.0014263279 -0.00032477135 0.0065195976 
  328000    2.6382055  0.023202227    28372.625    150662.16 -0.00019368458 -0.0010789223  0.005363986 
  329000    2.6422368  0.023544037    28372.625    151190.37 -0.0035811904 -0.00046204012 0.0033304239 
  330000    2.6489899  0.024058005    28372.625    151629.82 -0.0015301475 -0.0012502494 0.0060521527 
  331000     2.640682  0.023166524    28372.625    152115.32 -0.00020559805 -0.00091984841  0.002481763 
  332000    2.6411745  0.023958358    28372.625    152563.23 0.00095613492 0.0017332294  0.002947257 
  333000    2.6393397   0.02304185    28372.625    153026.12 -0.00057375023 0.0018297811 0.0039404191 
  334000    2.6484006  0.023232055    28372.625     153556.5 0.0016486417 0.0038736521 0.0056439248 
  335000    2.6477136  0.023314943    28372.625    154153.12 0.0013559503 0.0057348232 0.0066848914 
  336000    2.6444038  0.023394929    28372.625    154755.82 -0.00063237882 0.0043593093 0.0012125498 
  337000    2.6414225  0.023665026    28372.625    155287.69 0.0016553616 0.0053236922 -0.0044015695 
  338000    2.6335796  0.024323313    28372.625    155676.81 0.0021994484 0.0013091178 -0.0025536955 
  339000    2.6585068  0.023324718    28372.625    156055.12 0.0014877639 0.00065712125 0.0013130461 
  340000      2.63939  0.023782683    28372.625    156397.48 0.0015826444 -3.5060389e-05 -0.0010025681 
  341000    2.6395469  0.023235316    28372.625    156717.12 0.00040857067 -0.0033879303 0.0005524333 
  342000    2.6467011  0.023310057    28372.625    157014.56 0.00081438836 -0.0021932428 0.00019201719 
  343000    2.6210745  0.025173549    28372.625     157334.3 0.0010672892 -0.0012700833 -0.00050402941 
  344000    2.6440296  0.023110997    28372.625    157630.08 0.00092472061 -0.0073489895 -0.00051575011 
  345000    2.6462343  0.024421992    28372.625    157962.87 -0.00017491521 -0.0016772733 0.0019187339 
  346000    2.6468004  0.023257556    28372.625    158283.21 0.0022055094 -0.0027934332 -7.0946781e-05 
  347000    2.6408981  0.023603895    28372.625    158615.95 -0.00020115511  0.001034068 -0.0010883807 
  348000    2.6445898  0.023605581    28372.625    158996.58 -0.005385681  0.000369009 -0.00080702665 
  349000    2.6452123  0.023059716    28372.625    159350.31 -0.002431088 -0.0031852857 -0.0037269991 
  350000    2.6470894  0.023229453    28372.625    159810.38 0.0020664429 -0.0029596031 -0.0054223828 
  351000    2.6523738  0.023119321    28372.625    160240.13  0.005605111 -0.001389376 -0.0060439104 
  352000     2.647465  0.023364602    28372.625    160729.98  0.006367383 -0.003898545 -0.0073343716 
  353000    2.6442594  0.023851992    28372.625    161219.04 0.0010653763 -0.0033782113 -0.0069845972 
  354000    2.6404881  0.024025716    28372.625    161717.65 0.0067100418 -0.0011636496 -0.0042727022 
  355000    2.6384728  0.023459632    28372.625    162290.92 0.0048741658 -0.0025330088 -0.0036016713 
  356000    2.6466145  0.024302493    28372.625    162914.96 0.0015452345 0.00033167274 -0.004640378 
  357000    2.6546195  0.023424786    28372.625    163430.04 0.0054480041 -0.00038646037 -0.0015766903 
  358000    2.6421276  0.024010986    28372.625    163781.47 0.0022910686 -0.00040701925 -0.0009190859 
  359000    2.6536262  0.023427543    28372.625    164066.76 0.0010949307 0.0021273494 -0.0025570758 
  360000    2.6590298  0.023113811    28372.625    164320.61 0.0034784764 0.0049307128 -0.0013114831 
  361000    2.6432088  0.023348401    28372.625    164636.31  0.003140579 0.0045908221 -0.0020867058 
  362000    2.6565896  0.023577123    28372.625    165027.68 -0.00026671842 0.0025492839 0.00052805458 
  363000    2.6514224  0.023398777    28372.625     165487.4 0.0013718365 0.0030512894 -0.0011291515 
  364000    2.6407797  0.023229572    28372.625    166028.21 0.0032766818 -0.00026123248 0.0015715693 
  365000    2.6261351  0.024885415    28372.625    166519.74 0.0048908171 -0.0034517212 0.0036254159 
  366000    2.6393837  0.023256234    28372.625    166884.93 0.0035506035 0.00097255489 0.00026583226 
  367000    2.6373975  0.024017541    28372.625    167188.07 0.00031800628 -0.00049687389 -0.0030444662 
  368000     2.638414  0.023509407    28372.625    167545.92 -0.00039689241 -5.1423706e-05 -0.0056544484 
  369000    2.6333006  0.023447184    28372.625    167970.72 -0.0013307448 -0.0014281467 -0.0038466131 
  370000    2.6337396  0.023467956    28372.625    168442.33 -0.00016924624 0.00079551597 -0.0057199813 
  371000     2.638602  0.023829826    28372.625    168876.22 0.0018785183 0.0020130898 -0.0061054096 
  372000    2.6477651  0.023289924    28372.625    169162.26 0.0036407212 -0.0033502654 -0.0023751256 
  373000    2.6544522  0.023169389    28372.625    169361.42 0.0030568443 -0.0033092767 -0.00043970947 
  374000    2.6403087  0.024263528    28372.625    169603.28 -0.0011946496 -0.0077759289 -0.00016951678 
  375000     2.645289  0.023104845    28372.625    169871.49 -0.00072542389 -0.0084403424 -0.0016578918 
  376000    2.6243003   0.02388852    28372.625    170197.94 -0.0012146235 -0.0044526931 -0.0064510614 
  377000    2.6460109  0.025084749    28372.625    170489.09 0.0061825254 -0.0035998091 -0.0035413229 
  378000    2.6535581  0.023228331    28372.625    170674.49 0.0029605717 -0.0040247219 -0.0050450831 
  379000    2.6495624   0.02376121    28372.625    170949.37 0.0094666278 -0.0051968765 -0.0044057693 
  380000    2.6348424  0.024252177    28372.625    171327.77  0.010094317 -0.0030600812 -0.0045597417 
  381000    2.6497107  0.023624101    28372.625    171721.19 0.0070852666 -0.0037464427 -0.0020978155 
  382000     2.653267  0.023035212    28372.625    172120.72 0.0074838783 -0.0071648882 -0.003629844 
  383000    2.6472003   0.02318702    28372.625     172542.2  0.006573495 -0.006586688  -0.00211539 
  384000    2.6357226  0.023855108    28372.625    172919.14 0.0079724054  -0.01409546 0.0021108276 
  385000    2.6454922  0.023200218    28372.625    173352.16 0.0056320385 -0.0058118886 -0.00022176824 
  386000    2.6561184    0.0234426    28372.625    173889.74 0.0055898438 -0.0064509283 -0.0026525826 
  387000    2.6408579  0.024071437    28372.625    174493.47 0.0015764249 -0.0021776282 -0.0025921037 
  388000    2.6449724  0.023087284    28372.625    174927.94 -0.0014475885 -0.0050050316 -0.0030827149 
  389000    2.6077561  0.026105122    28372.625    175321.86 -0.0013051085 -0.012171899 -0.012620694 
  390000     2.640947  0.023555554    28372.625    175746.42 -0.00018267623 -0.0032806063 -0.0015986813 
  391000    2.6292517  0.024999552    28372.625    176106.01  0.004365666 -0.003250025 -0.0011249667 
  392000    2.6405062  0.023405551    28372.625    176543.38 -0.0025132903 -0.0036808428 -0.0018859085 
  393000    2.6393791  0.023542574    28372.625    177061.39 -0.0035661641 -0.0042578084 -0.002058098 
  394000    2.6362955  0.023149499    28372.625    177610.23 -0.00089754393 -0.003444711 -0.002334314 
  395000    2.6573185  0.023241642    28372.625    178089.45 0.00012160551 -0.0025182302 0.00028786889 
  396000     2.643011  0.023166038    28372.625     178516.1 0.00080847702 0.0024711239 0.0017785092 
  397000    2.6548257  0.023510706    28372.625    179003.63 0.00086398369 0.0023179412 0.0013496565 
  398000    2.6273088  0.025758377    28372.625    179511.62 -0.0043726408 0.0047874142 0.0035105083 
  399000    2.6439686  0.023887531    28372.625    179848.52 0.00059986492 -0.00020881516 0.00034527524 
  400000    2.6301509  0.024168458    28372.625    180088.36 0.0017093869 0.00021412184 0.0018844021 
  401000     2.652871  0.023686267    28372.625    180419.88 -0.0017966728 -0.00020862555 0.0014823525 
  402000    2.6608161  0.023808591    28372.625    180768.34 -0.00057000055 -0.0010173856 0.0019646472 
  403000     2.645265  0.023675055    28372.625    181051.66 0.0019798146 -0.00065392827 0.0034386886 
  404000    2.6411713  0.023223893    28372.625    181314.43 0.0017108804 -0.0041941693 0.0028218569 
  405000    2.6444906  0.023418063    28372.625     181575.3 0.0010664103 -0.00028228947 0.0011185578 
  406000    2.6433088  0.023354673    28372.625    181823.01 0.0015167596 0.00042646926 0.0040626664 
  407000     2.632951  0.024937357    28372.625    182029.64  0.002537057 -0.00069402632 0.00021131867 
  408000     2.657222  0.023536998    28372.625    182202.96 0.0037299694 -0.00045426644 0.0018852559 
  409000    2.6482802  0.023290596    28372.625    182453.36 0.0036414266 -0.0022610721 0.0045076266 
  410000    2.6462777  0.023516559    28372.625    182709.72 0.00044946567 -0.0021189501 0.0023674672 
  411000    2.6467056  0.023598768    28372.625    183058.61 0.0010442732 0.00039956905 0.0014206586 
  412000    2.6317828  0.023352438    28372.625     183425.1 0.0039454902 0.0010664065 0.0011019755 
  413000     2.638867  0.023935094    28372.625    183789.33 0.0037824613 0.00034173015 0.0027357663 
  414000    2.6446601  0.023445737    28372.625    184187.88 0.0021004962 0.0007903016 0.0031289608 
  415000    2.6440289  0.023422568    28372.625     184565.9  0.004680377 0.00091262768 0.0058706951 
  416000     2.648152  0.024292567    28372.625    185035.38 0.0061175708 0.0012672194 0.0072160334 
  417000      2.64818  0.023319784    28372.625    185522.47 0.0063475968 0.00068627418  0.010964859 
  418000    2.6341257  0.024543305    28372.625    186058.07 0.0076771397   0.00171402 0.0042333055 
  419000     2.655563  0.024552345    28372.625    186448.16 0.0019992362  0.001424608 0.0033079912 
  420000     2.640653    0.0233656    28372.625    186841.52 0.0067364645 -0.0011857882 0.0047062427 
  421000    2.6503738  0.023688664    28372.625    187283.31 0.0065742068 0.00087166739 0.0033621895 
  422000    2.6485796  0.023472392    28372.625    187719.81 0.0057016507 8.6157648e-05 0.0062115453 
  423000    2.6409865  0.023974821    28372.625    188216.48 0.0032371042 -0.0016895413 -5.3732008e-05 
  424000    2.6478861  0.023466999    28372.625    188810.41 0.0057158714 0.00041158816 -0.0020947231 
  425000    2.6554528  0.024293756    28372.625    189383.08 0.0080170775 -0.003285487 0.0012470241 
  426000     2.637107  0.024152088    28372.625    189851.99 0.0065327691 -0.004633951 -0.00020300859 
  427000    2.6580663    0.0238187    28372.625    190217.05 0.0087999752 0.00028629241 -0.001342144 
  428000    2.6359126  0.023580182    28372.625    190573.49 0.0076391385 -0.0020380799 0.0006835458 
  429000    2.6452425   0.02321861    28372.625    191000.56 0.0031328505 -0.0062490135 0.0014601152 
  430000    2.6532954  0.023254672    28372.625    191513.47 0.0031464115 -0.0071297554 0.00074868118 
  431000    2.6478643  0.023133499    28372.625    192044.86 -0.0026554635 -0.0078551805 5.6985009e-06 
  432000    2.6407052  0.023328371    28372.625    192600.77 -0.0035527807 -0.0081059162 -0.0014214804 
  433000    2.6409325   0.02406291    28372.625    193085.15 0.00076498168 -0.0041021148 -0.00062016887 
  434000    2.6527979  0.023995479    28372.625    193626.23 0.0056535507 -0.0055865795 -0.0055754638 
  435000    2.6543048  0.024168705    28372.625    194199.12  0.002604408 -0.0073317119 -0.0022532686 
  436000    2.6420175   0.02488313    28372.625    194705.35 0.0015952781 -0.0035344286 -0.0027733877 
  437000    2.6607407  0.023177929    28372.625    195210.24 0.0013848817 -0.0052640665 -0.0022617127 
  438000    2.6514223  0.024403917    28372.625    195620.22 0.00057286631 -0.00078862356 -0.0047387367 
  439000    2.6321289   0.02515445    28372.625    195963.09 0.0032950304 -0.0081871456 -0.0046650444 
  440000    2.6544224  0.023771144    28372.625    196166.69 0.0016862684 -0.0088363694 -0.0031877744 
  441000    2.6503904  0.023438141    28372.625    196395.48 0.0021007787 -0.0058347141 -0.0032201369 
  442000    2.6495142  0.023591609    28372.625     196565.4 0.0029963407 -0.0069558531 -0.0018796348 
  443000    2.6361602  0.023425666    28372.625     196771.8 0.0022154965 -0.0044531612 -0.0022281086 
  444000    2.6437855  0.023095816    28372.625    197074.49 0.0043548529 -0.004409437 -0.0054804647 
  445000    2.6409984  0.024219104    28372.625    197362.95  0.003841404 -0.0038120595 -0.0053210474 
  446000    2.6275394  0.024725336    28372.625    197539.05 0.0059207585 -0.0041999432 -0.0017946793 
  447000    2.6405994  0.023311982    28372.625    197694.09 0.0063864562 -0.0061026689 -0.0021447827 
  448000    2.6421417  0.023269697    28372.625    197902.36 0.0092993371 -0.0034939058 0.0023196214 
  449000    2.6353097  0.023145758    28372.625    198104.56 0.0060754678 -0.005287634 0.0023414058 
  450000    2.6434627   0.02407108    28372.625    198215.98 0.0082971199 -0.0086364979 0.0036243239 
  451000    2.6500124  0.023902623    28372.625    198319.12 0.0031511645 -0.0043264899 0.0065142505 
  452000    2.6350965  0.023973926    28372.625    198514.62 0.0046004878 -0.0031529895 0.0058525524 
  453000    2.6517042  0.023358131    28372.625    198733.01 0.0043300999 -0.0033496828 0.0064830594 
  454000    2.6389711   0.02356979    28372.625    198858.03 0.0056895036 -0.0037135565 0.0095939588 
  455000    2.6432389  0.024418767    28372.625    198944.79 0.0049977075 -0.0032505527 0.0059376352 
  456000    2.6431199  0.023272384    28372.625    199080.07  0.001796868 -0.0054649903 0.0088685918 
  457000    2.6484162   0.02347191    28372.625    199207.29 -0.0026451445 -0.0012239813  0.007328246 
  458000    2.6420258  0.023946175    28372.625    199361.14 -0.004671698 -0.0027922052 0.0072852808 
  459000    2.6361932  0.023355603    28372.625    199592.94 -0.0025247958 -0.0039659261 0.0082234497 
  460000    2.6408888  0.023206049    28372.625    199849.33 0.0014044555 -0.0022308128 0.0064027337 
  461000    2.6448761  0.023031498    28372.625     200218.2 0.0022068087 -0.0034165461  0.005072647 
  462000    2.6421272  0.024295551    28372.625    200513.99 -0.00011666414 -0.0043094367 0.0024010858 
  463000    2.6484347  0.023645161    28372.625    200721.61 0.0034375169 -0.00035321582 0.0046597793 
  464000    2.6468702  0.023372697    28372.625     200975.9 0.0028345266 0.00014559961 0.00082629763 
  465000    2.6512627  0.023102708    28372.625    201320.49 0.0018192346 -0.002196962 0.0057260932 
  466000    2.6530185  0.023670542    28372.625    201616.39 0.0035064056 0.0019709607  0.005723561 
  467000    2.6477739   0.02356486    28372.625    201936.33 0.0035118918 -0.0015236949  0.007724303 
  468000    2.6348747  0.024276704    28372.625    202233.29 0.0039805311 -0.0029893541 0.0084431142 
  469000    2.6290388  0.024675144    28372.625    202544.28 0.0029545428 -0.0033174047 0.0046106147 
  470000    2.6377893  0.025278303    28372.625    202841.58 0.0060040097 -0.0043102705 0.0093348968 
  471000    2.6460307  0.023232174    28372.625    203054.94 0.0022997564 -0.004772018 -0.00072151191 
  472000    2.6427797  0.024213091    28372.625    203263.69 -2.3100606e-05 -0.0032697547 -0.003727259 
  473000    2.6563092  0.023479754    28372.625    203521.25 0.0022071521 -0.0010140105 -0.000882628 
  474000    2.6298334  0.024478319    28372.625    203832.83  0.001397333 0.00018920111 -0.0038896531 
  475000     2.628079  0.024091176    28372.625    204063.11 1.7775281e-05 0.0014844031 -0.0017546715 
  476000    2.6386336    0.0244036    28372.625    204221.72 -0.00072898198 0.00047750047 0.0021681098 
  477000    2.6386625   0.02327036    28372.625    204367.26 -0.00039475441 -0.0013396872 -0.0013199679 
  478000    2.6315506  0.023819794    28372.625    204566.65 -3.6093496e-05 -0.00056264107 -0.0014535268 
  479000     2.633041  0.024085342    28372.625    204764.39 -0.0022589708 0.0001355916  -0.00175976 
  480000    2.6312829  0.024112559    28372.625    204957.44 0.0019931313 3.0558951e-05 -0.0016005194 
  481000    2.6419773  0.023573367    28372.625    205197.99 -0.0036676631 0.0029975983 -0.0040875004 
  482000    2.6509621  0.023787656    28372.625    205507.14 0.00091756707 0.0023795564 0.0033660601 
  483000    2.6410138  0.023942325    28372.625    205888.06 0.0031713334 0.0026563592 0.0010868022 
  484000    2.6468542  0.023778529    28372.625    206234.37  0.001076762 0.0032814984 -0.0009576922 
  485000    2.6418718  0.023228402    28372.625    206703.48 0.00047626617 0.0015838194 -0.0004471808 
  486000    2.6351126  0.023503714    28372.625    207268.93 -0.0018179665 0.00015632326 0.0012781107 
  487000    2.6555649  0.023785781    28372.625    207793.28 0.0012181469 0.0024297183 0.0031678539 
  488000    2.6367142  0.023797687    28372.625    208302.72 -0.0020154582 0.00075847942  0.002373071 
  489000    2.6458019  0.023250863    28372.625    208878.52 0.0003898712 0.0049314508 -0.00010667405 
  490000    2.6384545  0.024092998    28372.625    209516.57 0.00079217747 0.0028681268 0.00069696914 
  491000    2.6559353  0.023791886    28372.625    210154.22 -0.0015793462 0.0061088534 0.0031178163 
  492000    2.6432426  0.023852932    28372.625    210646.22 -0.0025299652 0.0067222824 0.0047775436 
  493000    2.6277747  0.023958186    28372.625    211174.57 -0.0011639108 0.0021273639 0.0091729293 
  494000    2.6352234  0.023655793    28372.625    211737.46 -0.0028121025 0.0042128517 0.0053468237 
  495000    2.6447158  0.023755134    28372.625    212272.22 -0.0024147114 0.0029155956 0.0047089711 
  496000     2.640877  0.023741013    28372.625    212742.63 -0.0030525918  0.002992303 0.0074726854 
  497000    2.6491831  0.023906094    28372.625    213318.19 -0.0055545948 0.0049211193   0.00497331 
  498000    2.6319545  0.024442072    28372.625    213831.89 -0.0020066124 0.0021151143  0.007935439 
  499000    2.6380909  0.024116334    28372.625    214341.86 0.0011638577 -0.00049095703 0.0050875694 
  500000    2.6393238   0.02445181    28372.625     215000.3 -0.001254817 0.0035155525 0.0065511478 
  501000    2.6418641  0.024128878    28372.625    215760.31 -0.0056860773 0.0039914582 0.0034022929 
  502000    2.6505581  0.023405176    28372.625    216446.43 0.00066189784 0.0014849873  0.004186088 
  503000    2.6430393  0.023348493    28372.625    217063.35 -0.00054624518 0.00070810396 0.0026025472 
  504000    2.6479972  0.023785275    28372.625     217591.3 0.0023979621 0.0004923288 0.0030963812 
  505000     2.659961  0.023434599    28372.625    218180.53 0.0069018749 -0.0011394099 0.0066085246 
  506000    2.6252039  0.024690723    28372.625    218714.48 0.0085772186 -0.0017951212 0.0089111129 
  507000     2.657896  0.023913855    28372.625    219194.97 0.0043349019 0.00080484726 0.0095154562 
  508000    2.6341605  0.023594805    28372.625    219589.52  0.003040769 -0.002315672 0.0055990558 
  509000     2.628673  0.023220642    28372.625    219886.83 0.00029987834 -0.00025674218 0.0053136123 
  510000    2.6349214   0.02425221    28372.625     220109.7 0.0021648037 0.0010174305 0.0020385217 
  511000    2.6402953  0.023343513    28372.625    220307.34 0.0012264591 0.0012817911 0.0010323874 
  512000    2.6244676  0.024641309    28372.625    220426.65 -0.001495734 -0.0015363627 0.00083121817 
  513000    2.6332296  0.023636713    28372.625    220622.13 0.0016903789 -0.002804292 0.0013205337 
  514000    2.6428551  0.023430822    28372.625    220966.36 0.0020506846 -0.0021423964 0.0011191779 
  515000    2.6403113  0.023145399    28372.625     221342.8 0.0017837331 0.0015351942 -0.00060943297 
  516000    2.6424246  0.023594932    28372.625    221738.78 0.0010338348 0.0013533453 -0.0014079158 
  517000    2.6339864  0.023761832    28372.625    222124.88 0.00035840483 0.0031879822 0.0011708876 
  518000    2.6293937  0.023695278    28372.625    222464.55 0.00086928226 0.0064264989 -9.6983452e-05 
  519000     2.643568  0.023505611    28372.625    222915.22 -0.00031745409  0.006507835 -0.0012524121 
  520000      2.64149   0.02338831    28372.625    223314.91 -0.0010540635 0.0077550297 -0.00019330154 
  521000    2.6464839  0.024219267    28372.625    223654.17 0.00033844462 0.0076492983 0.00033920739 
  522000    2.6409481  0.023344169    28372.625    223905.91 0.00034193039 0.0049228506 0.00032363804 
  523000    2.6260794  0.025515855    28372.625    224178.74 -0.0070068077 0.0050176587 0.0027309521 
  524000    2.6402964  0.023336528    28372.625    224548.31 -0.0042022515 0.0040543685 -0.0016869105 
  525000    2.6366044  0.023539928    28372.625    224984.55 -0.0024842332 0.0032286736 -0.0023923328 
  526000    2.6443772  0.023756648    28372.625    225448.46 -0.0030144222 0.0040272541 -0.0012644361 
  527000    2.6310775  0.024304933    28372.625    226065.36 -0.0037590765 0.0025935899 0.00065597978 
  528000    2.6393226  0.023741062    28372.625    226815.51 -0.0052185783 -0.00012771852 0.0026241436 
  529000    2.6505733  0.023674835    28372.625    227550.06 -0.0042720304 -0.0033357521 -0.0016006747 
  530000    2.6433737  0.023154487    28372.625    228355.64 -0.0039576524 -0.00041065914 -0.00036948595 
  531000    2.6427274   0.02396407    28372.625    229095.32 -0.0025053385 -0.00012457365 -0.0024118068 
  532000    2.6396136  0.023925252    28372.625    229866.67 -0.00028121339 0.00099501048  -0.00093514 
  533000    2.6282467  0.023303039    28372.625    230534.43 0.0035093423 -1.0207367e-05 1.8497144e-05 
  534000    2.6475258  0.023093386    28372.625    231070.88 0.0036168049 0.00028677631 1.3863419e-06 
  535000    2.6398004  0.023429573    28372.625    231561.52 0.0050418888 -0.0016522259 0.0016741354 
  536000    2.6481776  0.023402539    28372.625    232051.32 0.0058678088  0.001154315 0.0010486002 
  537000    2.6397328  0.024194889    28372.625     232574.2 0.0021824021 -0.00082642093 0.0059208781 
  538000    2.6436539  0.023132007    28372.625    233082.96 0.0048918816 0.0015999134 -0.00020411747 
  539000    2.6577531  0.023798182    28372.625    233603.47 0.0028545725 0.0024565349  0.001894999 
  540000    2.6337543  0.023587433    28372.625    234096.51  0.002583313 0.0020386491 0.00081838674 
  541000    2.6398901   0.02350344    28372.625    234627.54 0.00092874519 0.0032005258 0.0010567569 
  542000    2.6395922  0.024223261    28372.625    235146.49 0.0021912203 -0.0014430737 0.0031422245 
  543000    2.6462937  0.024051086    28372.625    235509.18 0.00086837817 0.00028479597 0.00093924034 
  544000    2.6546583  0.023515667    28372.625    235861.88 0.00031546173 0.00055508839 0.0050096943 
  545000    2.6288775  0.024185986    28372.625    236206.43 -0.0045302577 -0.00081391654 0.0054786451 
  546000    2.6387472  0.023136714    28372.625    236627.41 -0.0046541613 0.00017823647   0.00659851 
  547000    2.6510114  0.023177371    28372.625     237112.8 -0.0044406408 -0.0042741745 0.0032608543 
  548000    2.6371377  0.023139368    28372.625       237591 -0.0049288512 -0.0027645621 0.0050457575 
  549000    2.6392336   0.02371931    28372.625    238055.78 -0.0048369583 -0.003472483 0.0053185272 
  550000    2.6365143  0.024013181    28372.625    238442.26 -0.0069495278 -0.0010274851 0.0058238934 
  551000    2.6417435  0.023224429    28372.625    238845.03 -0.001453699 -0.0014097191 0.0066731375 
  552000    2.6430063  0.023387251    28372.625    239071.17 -0.0023481563 -0.0018887235 0.0029235245 
  553000    2.6397694  0.024490306    28372.625    239284.82 -0.0029189497 -0.004035083 0.0037334881 
  554000    2.6383291  0.023376219    28372.625    239578.99 -0.00070220458 -0.0015441613 0.0065817618 
  555000    2.6330367  0.024385734    28372.625       239967 -0.0056114078 0.00068995058 0.0038075786 
  556000    2.6392616  0.024352938    28372.625    240487.94 -0.0064646829 -0.0031352913 0.0067696693 
  557000    2.6302989  0.024791429    28372.625    240942.23 -0.00053623599 -0.0020467971 0.0025283866 
  558000    2.6320851  0.024425063    28372.625     241393.6 -0.0013311274 -0.0069668984  0.001174568 
  559000    2.6541634  0.023737668    28372.625    241919.66 0.0023228269 -0.005302127 0.0047943214 
  560000    2.6279768  0.024799478    28372.625    242395.49 0.0059491423  -0.01432254 0.0048744766 
  561000    2.6407064  0.024692726    28372.625    242855.88 -0.0032091406 -0.0043161766 0.0060750886 
  562000    2.6382751  0.023714403    28372.625    243526.83 -0.00078019936 -0.0035089322 0.0033677938 
  563000    2.6412569  0.023513152    28372.625    244080.28 -0.0011824345 -0.0045393975 0.0043056416 
  564000    2.6398453   0.02349209    28372.625    244640.94 0.0028480687 -0.0022284636 0.0070396362 
  565000    2.6269937    0.0243452    28372.625    245163.16 0.0043269924 -0.0049207083 0.0057351124 
  566000    2.6355747  0.024822255    28372.625    245696.97  0.001251155 -0.00049526068 0.00074932783 
  567000    2.6250043  0.024634978    28372.625    246314.36 0.00029440525 -0.0020800402 0.0025350618 
  568000    2.6442673  0.023489166    28372.625    246903.72 0.00094673641 -0.0043617898 -0.002352882 
  569000    2.6535262  0.024336228    28372.625    247599.19 -0.0018285766 -0.0044313005 -0.0042001508 
  570000    2.6545081  0.023923085    28372.625    248099.48 -0.00074125071   0.00216903 -0.0042538955 
  571000    2.6424184  0.023277775    28372.625    248448.89 -0.0031687321 -0.0016829276 -0.0041763223 
  572000    2.6488423  0.023808428    28372.625       248594 -0.0067135627 -0.00034604522 -0.0041643308 
  573000    2.6415532  0.023097186    28372.625    248721.01 -0.0048392649 0.00053975297 -0.004476138 
  574000    2.6422522  0.023834647    28372.625    248894.03 -0.007875222 -0.00018972981 -0.0024888503 
  575000    2.6540633  0.023422717    28372.625    249257.93 -0.0073841042 -0.0030351139 -0.0014703962 
  576000     2.646283  0.023698881    28372.625    249689.58 -0.010151614 -0.00040284408 1.3031067e-05 
  577000    2.6327721   0.02349143    28372.625    250113.68 -0.0097126202 0.00042845411 0.0018037517 
  578000    2.6418202  0.024953047    28372.625    250354.39 -0.0031769002 0.0020586431 0.0014991727 
  579000    2.6419701  0.024533068    28372.625    250452.83 -0.0022877418 -0.0038257067 -0.0041498506 
  580000    2.6277604  0.023812899    28372.625    250673.42 -0.0030419147 0.0035978316 -0.0044990566 
  581000    2.6327966  0.023479627    28372.625    250648.59 -0.0046478266 0.0029380181 -0.0042534353 
  582000    2.6371178  0.023823787    28372.625    250730.05 -0.0044630386 0.0064984974 -0.0018102165 
  583000    2.6432773  0.023522644    28372.625    250939.53 -0.0064833104 0.0046656086 -0.0013483239 
  584000    2.6430587  0.023589425    28372.625    251084.08 -0.008314581 -0.0039374381 -0.00051033818 
  585000    2.6372514  0.024444657    28372.625     251353.2 -0.011396011 -0.0010394018 0.0054085245 
  586000     2.639489  0.024306231    28372.625    251633.38 -0.0087763777 -0.002381936 0.0022528984 
  587000    2.6428444  0.023348211    28372.625    252027.36 -0.0091085274 -0.0021554104 0.00018512325 
  588000    2.6484794   0.02357414    28372.625    252434.98 -0.009822173 0.0026806022 0.0058011535 
  589000    2.6383006  0.023596818    28372.625    252876.35 -0.007502797 0.0011257671 0.0066348865 
  590000    2.6419489  0.024260853    28372.625    253284.33 -0.0064553186 0.0055264927 0.0083202044 
  591000    2.6417288   0.02398152    28372.625    253671.06 -0.0089269562 0.00087211094 0.0074573604 
  592000    2.6334951  0.024084914    28372.625    253906.08 -0.0058562729  0.006529465   0.01129406 
  593000    2.6278153  0.025164406    28372.625    253994.45 -0.00063473326 0.0036987953  0.010008467 
  594000    2.6439968  0.023236433    28372.625    254076.54 -0.0035029408 -0.00021980408 0.0019350083 
  595000    2.6423809  0.023609152    28372.625    254067.68 -0.0058859306 -0.00013367154 0.00090067689 
  596000    2.6458907  0.023597761    28372.625    254089.39 -0.0056855892 0.00034977867 -0.0010812235 
  597000     2.643394  0.023262552    28372.625     254196.9 -0.0056634728 -0.0042464298 -0.0021387353 
  598000    2.6351055  0.024555845    28372.625    254456.16 -0.0084578705 -0.0068987605 0.0025208568 
  599000    2.6327488  0.024525146    28372.625    254736.23 -0.0054390657 -0.0024718442 -0.0025588956 
  600000    2.6476616  0.023418978    28372.625     255049.5 -0.0047532804 -0.0028034588 -0.0038305009 
  601000     2.630596  0.024622087    28372.625    255353.54 -0.0037769399 -0.0030352237 -0.0046027939 
  602000    2.6543326   0.02349839    28372.625    255668.09 0.0022844967 -0.0011278595 -0.0039055831 
  603000    2.6349305  0.023850094    28372.625    256050.55 -0.0028467613 0.0042494088 -0.0035846647 
  604000     2.634144  0.024832114    28372.625    256493.66 0.00015495295 -0.0031756059 -0.0017484853 
  605000    2.6487757  0.023191735    28372.625    256884.79 0.00015943348 0.0010671537 -0.0018710114 
  606000    2.6239424  0.025110313    28372.625     257227.6 -0.0070321824  0.001800037 -0.0046615315 
  607000    2.6375531  0.024694082    28372.625    257472.83 -0.0025756287 -0.00043471541 -0.0041096352 
  608000    2.6393934  0.023201779    28372.625    257743.38 -0.0016888564 0.0014448329 -0.004032696 
  609000    2.6630515  0.023387596    28372.625    258026.15 -0.0030637912 -0.00065724288 -0.0019865761 
  610000    2.6413279  0.023205913    28372.625    258286.36 -0.0046856511 -0.00033174598 0.00081631023 
  611000    2.6304687  0.023409371    28372.625    258374.58 -0.0050990065 -0.0021020103 -0.00066503462 
  612000    2.6420157   0.02339605    28372.625    258384.33 -0.0055948162 -0.0020094685 -0.0031683989 
  613000    2.6442483  0.023207069    28372.625    258334.53 -0.0062960584 -0.001685598 -0.0022319354 
  614000    2.6497355  0.023076536    28372.625    258282.56 -0.0028014928 -0.0019239936 -0.0029087328 
  615000    2.6481027   0.02465068    28372.625    258208.44 5.0048521e-05 -0.0022535367 -0.002489449 
  616000    2.6463504  0.023627637    28372.625    258237.67 -0.0014073724 -0.00014436833 -0.0019679118 
  617000    2.6472475  0.023747497    28372.625    258248.44 -0.0028652197 -0.0043952203 0.0010665507 
  618000    2.6442649  0.023827627    28372.625    258142.37 -0.0019857805 -0.00056156635 -0.00040153426 
  619000    2.6468445  0.023224552    28372.625    258205.89 -0.0014799528 -0.00067573594 -0.0018202598 
  620000    2.6371781  0.024144473    28372.625    258226.83 -0.0026978704 2.203347e-05 -0.00055382492 
  621000    2.6472684  0.023217712    28372.625    258269.81 -0.0010770309 0.0015443937 -0.0028999435 
  622000    2.6405061  0.023070471    28372.625    258316.23 -0.0034599066 0.0017690458 -0.0043712368 
  623000    2.6289201  0.023976141    28372.625    258289.04 -0.0018978764 0.00030700063 -0.0090848769 
  624000    2.6426356  0.023830495    28372.625    258362.56 -0.0047023127 0.0025428356 -0.0063199073 
  625000    2.6414053  0.023364388    28372.625    258416.87 -0.00097470793 0.0019884541 -0.0067268364 
  626000    2.6414474  0.023430508    28372.625    258513.76 0.00098970861 0.0029264043 -0.0070284766 
  627000    2.6460244  0.023155687    28372.625    258577.49 -0.0010809957 0.0032735437 -0.0071949437 
  628000    2.6482011  0.023154787    28372.625    258553.75 0.00096486335 -0.00095687512 -0.0051855652 
  629000    2.6588086  0.023943408    28372.625    258631.11 0.00099923495 0.0028331844 -0.0086820604 
  630000    2.6476535  0.023435932    28372.625    258634.59 0.0019914629 0.0082411458 -0.0059338793 
  631000    2.6435028  0.024928226    28372.625    258556.57 -6.9082855e-05  0.001808561 -0.0046380337 
  632000    2.6573562  0.024138706    28372.625    258636.51 -0.0055637896 5.3425941e-05 -0.0054941806 
  633000    2.6455006  0.023251079    28372.625    258705.41 -0.0035500432 -0.0013373491 -0.0063766963 
  634000    2.6466707  0.023080351    28372.625    258776.02 -0.0036714683 -0.0019525245 -0.0084117629 
  635000     2.650466  0.023995695    28372.625    258795.97 -6.3580373e-05 -0.0035743208 -0.005643216 
  636000    2.6474004  0.023296323    28372.625    258937.72 -0.0023923421 -0.0019030526 -0.0077594047 
  637000     2.640168  0.023334945    28372.625    259248.01 -0.0023578334 -0.0026304951 -0.0066440879 
  638000    2.6424733  0.023258147    28372.625    259570.28 0.00030517128 -0.0061487731 -0.0038690367 
  639000    2.6500873  0.023929004    28372.625    260047.93 -0.00087993175 -0.0085874234 -0.0033694313 
  640000    2.6499303  0.023463764    28372.625    260604.49 -0.0022292277 -0.0070886233 -0.0029672097 
  641000    2.6279258  0.023923632    28372.625    261138.22 -0.0050185973 -0.0047650389 -0.0026806546 
  642000    2.6492315  0.023239765    28372.625    261617.74 -0.0043906188 -0.004660364 -0.0057533702 
  643000    2.6425172  0.023845133    28372.625     262021.2 -0.0015348623   -0.0051412 -0.0050978651 
  644000    2.6398905  0.023421532    28372.625    262610.05 0.00061446068 -0.0035711233 -0.0061153431 
  645000    2.6474307  0.024453896    28372.625    263196.12 -0.0036718465 -0.005549647 -0.0056452107 
  646000    2.6219792  0.025146512    28372.625    263834.75 -0.0064971092 -0.0063155751 -0.0075595736 
  647000    2.6308508  0.023674255    28372.625     264398.2 -0.0077748327 -0.0035032826 -0.0064081399 
  648000    2.6389076  0.023663251    28372.625    265016.32 -0.0039026683 -0.0023340451 -0.0059925058 
  649000    2.6471898  0.023733327    28372.625    265404.44 -0.0028069108  -0.00312539 -0.0049631593 
  650000    2.6509134  0.023729958    28372.625    265947.82 -0.0025926675 -0.0032710789 -0.0043102222 
  651000    2.6306422  0.023538747    28372.625    266567.64 -0.0048587242 -0.0027936502 -0.0048702853 
  652000     2.636496  0.023519945    28372.625    267137.83  -0.00566661 -0.0025949831 -0.0023378957 
  653000    2.6557946  0.023468328    28372.625     267684.1 -0.00086383092 -0.0014458391 -0.0038495438 
  654000    2.6389153  0.023730658    28372.625    268189.26 -0.0045679782 -0.0015343823 -0.002953253 
  655000    2.6415934  0.023520389    28372.625    268741.19 -0.0041791292 -0.00043158229 -0.0027666134 
  656000    2.6449593  0.023648375    28372.625    269238.62 -0.0049883734 0.0015975897 -0.00024906989 
  657000    2.6302811  0.024785423    28372.625    269748.64 -0.0060588979 0.0014228413 -0.0041935503 
  658000    2.6392457  0.023778766    28372.625    270324.77 -0.0028172857 0.0010168855 -0.0051543481 
  659000    2.6316408   0.02403346    28372.625    270824.27 -0.0061515313 0.0021871965 -0.0025069189 
  660000    2.6415485  0.023323973    28372.625     271284.9 -0.0055593469 0.0023257474 -0.0038358859 
  661000    2.6478489    0.0234483    28372.625    271741.75 -0.0069535567 0.0013207157 -0.00081923604 
  662000    2.6400668   0.02389126    28372.625    272220.73 -0.002184168 0.0015726253 0.0010524927 
  663000    2.6363047  0.024932192    28372.625    272612.32 0.0022289801  0.002814446 0.0027807166 
  664000    2.6386744  0.024485161    28372.625     272892.3 -0.0012879896 0.00060183739  0.003429273 
  665000     2.649369  0.024276482    28372.625    273136.73 0.00076960491 6.7359455e-05 0.0012047186 
  666000    2.6190621  0.025392119    28372.625    273374.91 0.0023090934 0.0025301091 -0.0026194727 
  667000     2.639955  0.023635081    28372.625    273687.26 0.0024025747 0.0020989703 -0.0044427168 
  668000    2.6424664  0.023326008    28372.625    273943.15 0.0032058406 0.0019005142 -0.0052004284 
  669000     2.640349   0.02336669    28372.625    274285.56 0.0019775105 0.0029945771 -0.004661731 
  670000     2.650049  0.023557697    28372.625    274609.53 0.0026689871 0.0043446026 -0.0052533187 
  671000     2.649131  0.023337251    28372.625    274838.86 -0.0003526692 0.0042056875 -0.0033845921 
  672000    2.6315678  0.023999468    28372.625    275178.22 0.0013757059 0.0070147932 -0.0012430487 
  673000    2.6329638  0.023445675    28372.625    275544.97 0.0026203291 0.0053717342 -0.0020186878 
  674000    2.6486638  0.024300857    28372.625    275952.22 0.00089195237 0.00093746618 0.00010865858 
  675000    2.6549322  0.023252329    28372.625     276409.1 0.0018655015 0.0016621742 0.0025107058 
  676000    2.6368419  0.024114039    28372.625     276813.6 0.00047747607 -0.004226584 0.0013180958 
  677000    2.6554834  0.023909325    28372.625    277290.64 -0.0026118339 0.0029021667 0.0021262005 
  678000    2.6546607  0.023287729    28372.625    277688.96 -0.0029600956 0.0043915126 0.0050047331 
  679000    2.6447285  0.023579943    28372.625    277987.44 -0.0022554732 0.0034169525 0.0035207272 
  680000    2.6377547  0.023307848    28372.625    278395.77 -0.0002358041 0.0041542386 0.0023885307 
  681000    2.6423697  0.023397034    28372.625    278710.76 0.00095436388 0.0029374453 0.00062395958 
  682000    2.6384831  0.023558287    28372.625    278964.05 -0.0005105434 0.0035592595 0.0013492815 
  683000    2.6258837  0.024286811    28372.625    279233.18 -0.0018726778 0.0023519272 0.0028948772 
  684000    2.6513395  0.023371907    28372.625    279501.16 -0.0021244939 0.0029944843 0.0023227264 
  685000    2.6419576  0.023903518    28372.625    279908.26 0.00052184237 0.0040167344 0.0049720388 
  686000    2.6381418  0.023819061    28372.625    280436.84  0.002065346 0.0047250747 0.0034030039 
  687000    2.6308372  0.023689014    28372.625     280902.9 0.0019191165 0.0030966722 0.0028689086 
  688000    2.6499192  0.023416931    28372.625     281367.3 0.00067967053 0.0016371573 0.0016728451 
  689000    2.6386221  0.023712553    28372.625    281850.15 0.0011285098 0.0029931091 0.0025896095 
  690000    2.6382843  0.023408552    28372.625    282387.09 0.0033674654 0.0017615264 8.0543762e-05 
  691000    2.6513809  0.023775252    28372.625    282982.37 0.0052016252 0.0023807213 0.0012369032 
  692000    2.6530627  0.023213253    28372.625    283655.26  0.001991964 -0.002062241 0.0018611083 
  693000    2.6530633  0.023522227    28372.625    284386.01 0.0011222835 -0.0023419927 0.0013971824 
  694000    2.6247111   0.02436849    28372.625    285175.49 0.00060238105 -0.0013080435 0.0027402827 
  695000    2.6378007  0.024531537    28372.625    286034.97 0.00064421707 -0.0027355692 0.0048811057 
  696000    2.6406301  0.023213938    28372.625    286760.98 -0.00075576292 -0.0019315672 0.0056692522 
  697000     2.657908  0.023295479    28372.625    287506.33 -0.0028685432 -0.0011835648 0.0059116292 
  698000    2.6123544  0.025374666    28372.625    288186.16 -0.00037128926 -0.001822832 -0.00073490092 
  699000    2.6287848  0.023207541    28372.625    288793.38 -0.00084222679 0.00093134945 -0.0024186378 
  700000    2.6509241  0.023185402    28372.625    289494.31 0.00040903249 -0.00057471136 -0.00076449207 
  701000    2.6444396  0.023714668    28372.625    290076.82 -0.00053558841 -0.0023191869 0.00042394439 
  702000    2.6217432  0.025330051    28372.625    290777.98 -0.002557963 -0.0060318992 0.0020712477 
  703000    2.6347448  0.023805221    28372.625    291463.07 -0.00018721363 -0.00092200774 -0.0005234815 
  704000    2.6472537  0.023316735    28372.625    292043.73 0.00037568953 -0.0041677413 0.0015853616 
  705000    2.6497621  0.023485128    28372.625    292774.63 0.00073883723 -0.0034400594 -0.00079193339 
  706000     2.625143  0.024435014    28372.625    293483.23 -0.00088113098 -0.0025788381 -0.0030248302 
  707000    2.6225238  0.024372096    28372.625    294223.14 0.00091160614 -0.00063641808 0.0020970279 
  708000    2.6429716  0.023573982    28372.625    294911.93 0.0010260955 9.7784943e-05 0.0015091363 
  709000     2.633799  0.024674579    28372.625    295590.59 0.0020004508 -0.0024387419 -0.00089462888 
  710000    2.6375392  0.023703075    28372.625    296188.16 -0.0014530911 -0.0048000451 0.0039992154 
  711000    2.6376905  0.023599707    28372.625    296768.67 -0.0019453477 0.00034130886 0.0040437519 
  712000    2.6405824  0.023905081    28372.625    297335.89 -0.00099017454 -0.0029232395 0.00078654928 
  713000    2.6447345   0.02345928    28372.625    297969.49 -0.00024701463 4.3648574e-05 -0.00081651763 
  714000    2.6435277  0.023520785    28372.625    298801.88 -0.00023927281 0.00048916966 0.0021642056 
  715000    2.6391459  0.024178253    28372.625    299534.23 0.0013743694 0.00054740824 0.00015699129 
  716000    2.6466998  0.023318722    28372.625    300259.43 0.0030583696 4.2582937e-05 0.0019584949 
  717000    2.6438723  0.024621792    28372.625     300982.8 0.0014855516 -0.00028431387 0.0038984593 
  718000    2.6394786  0.023532217    28372.625    301581.62 -0.00048272222 -0.0021912909 0.00043851102 
  719000    2.6457761  0.023594565    28372.625    301980.86 0.0032526073 -0.0016446986 0.00022145853 
  720000    2.6384313  0.023095261    28372.625    302216.27  0.000867931 -0.0041475479 -0.004260244 
  721000    2.6447512  0.023444562    28372.625    302323.44 2.5115041e-06 -0.0027713078 -0.004592272 
  722000    2.6457062  0.023532723    28372.625    302359.11  0.004807946 -0.0037701502 -0.0049719477 
  723000    2.6350629  0.023456006    28372.625    302434.21 0.0060308103 -0.0068697195 -0.0044697702 
  724000     2.641095  0.023455087    28372.625    302447.54 0.0047671511 -0.0058015256 -0.0042894503 
  725000    2.6457744  0.023205507    28372.625    302535.62  0.005402627 -0.0070120249  -0.00595054 
  726000    2.6440125  0.023920197    28372.625    302615.19  0.004723712 -0.0069470039 -0.0050959421 
  727000    2.6436048  0.023249647    28372.625    302752.96 0.0045549363 -0.007635595 -0.0041451966 
  728000    2.6557618  0.023439725    28372.625    302881.46 0.0033374573 -0.0060874489 -0.0040363379 
  729000    2.6300131  0.024073786    28372.625    303060.16 0.0055897745 -0.0075305676 -0.00057425173 
  730000    2.6470565  0.023599383    28372.625    303349.18 0.0063423172 -0.0070918643 -0.0023566228 
  731000    2.6418015  0.023628471    28372.625    303810.85 0.0087277807 -0.0078233028 -0.0026296526 
  732000    2.6494868  0.023874591    28372.625    304279.32 0.0056772612 -0.0055018972 -0.0041246013 
  733000    2.6371913   0.02343168    28372.625    304696.39 0.0073041231 -0.0045477309 -0.0022847026 
  734000    2.6522242  0.023390175    28372.625    305296.17 0.0034716984 -0.0068319705 -0.00055579411 
  735000    2.6432658  0.023576893    28372.625    305999.94 0.0077094125 -0.0068555404 -0.0042189249 
  736000    2.6411212  0.023849889    28372.625    306707.08  0.010558638 -0.0054237641 -0.0036753066 
  737000    2.6396242  0.023759224    28372.625    307420.54 0.0062114859 -0.0089278513 -0.0014378244 
  738000    2.6612193   0.02375141    28372.625    308038.53 0.0057942005 -0.010681913 -0.0004347651 
  739000    2.6370305  0.023237018    28372.625    308745.47  0.006109878 -0.010744114 -0.00027975638 
  740000    2.6349274  0.023798502    28372.625    309318.29   0.00549989 -0.0086140215 -0.0014374109 
  741000    2.6449167  0.023810473    28372.625    309794.08 0.0050565855 -0.0085205173 -0.0032952652 
  742000    2.6447094   0.02380359    28372.625    310298.63 0.0070443975 -0.0085211063 -0.0038295819 
  743000    2.6402959  0.023775238    28372.625    310690.43 0.0016871772 -0.0096017174 0.00056372791 
  744000    2.6333697  0.024137865    28372.625    311087.88 0.0033724568 -0.0074838629 -0.00080293906 
  745000     2.637507  0.024246571    28372.625    311528.16 0.0030166682 -0.0050366319 -0.00083101676 
  746000    2.6311914  0.023980169    28372.625    312035.26 -0.00027003363 -0.0064925609 -0.0035620079 
  747000    2.6459046  0.023203027    28372.625    312539.21 0.0019518775 -0.0086900032 -0.0028510188 
  748000    2.6421695  0.023918501    28372.625    312904.34  0.005200216 -0.0096077451 -0.0038840462 
  749000    2.6339003  0.023612539    28372.625    313324.11 0.0026288554 -0.0096741216 -0.0041213158 
  750000    2.6263646  0.024902305    28372.625    313791.91 0.0034237773 -0.0089869867 -0.0047554921 
  751000    2.6293864  0.024623349    28372.625    314308.33 0.00018902236 -0.0056552585 -0.0034578325 
  752000    2.6552223  0.023581564    28372.625    314862.76 -0.0010295769 -0.0040030586 -0.0049566105 
  753000    2.6351247  0.023121867    28372.625    315363.64 -0.00076710492 -0.002095147 -0.0016977442 
  754000    2.6511112  0.024282923    28372.625    315696.83 0.0023382459 0.00085776879 -0.0010139862 
  755000    2.6495319  0.023770386    28372.625    315899.06   0.00395047 -0.0020071766 -0.0014388003 
  756000    2.6445126   0.02376798    28372.625    315989.74 0.0017072499 -0.0021770765 -0.0022176948 
  757000     2.641393  0.023443703    28372.625    316076.97 0.00065482262 -0.0042551229 -0.0039102027 
  758000    2.6292368  0.024726616    28372.625    316199.64 0.0083859489 0.00014982645 -0.00018228128 
  759000    2.6383197  0.024559193    28372.625     316205.4 0.0051367162 -0.0011534266 -0.00097775575 
  760000    2.6371104  0.023841679    28372.625    316203.21 0.0033750123 0.0020220563 -0.0017095518 
  761000    2.6532515  0.023352077    28372.625    316308.32 0.0058230591 0.0026243867 0.00014210581 
  762000    2.6328314  0.024375747    28372.625    316386.92 0.0050971248 9.320238e-05 -0.0030144577 
  763000    2.6383992  0.023343995    28372.625    316465.64 0.0082210687 0.00014884104  0.003194184 
[...]
 1844000    2.6412955  0.023993984    28372.625    798644.04 -0.00039042803  0.001800994 0.0031849694 
 1845000    2.6473088  0.023804706    28372.625    799257.35 -0.0015346966 0.0018241774  0.003017629 
 1846000     2.636111  0.023172348    28372.625     799869.1 -0.0003186591 0.0031288548 0.0032929519 
 1847000    2.6462957  0.023139089    28372.625    800514.81 0.0014882095  0.003435794 0.0042014537 
 1848000    2.6431058  0.023798198    28372.625    801187.04 0.0014789413 0.0046623848 0.0019366788 
 1849000    2.6405264  0.023297928    28372.625    801931.11 0.0017594824 0.0047414935 -1.3370388e-05 
 1850000    2.6478611  0.023406134    28372.625    802651.85 0.0010979499 0.0030885463 -0.0017241857 
 1851000    2.6347809  0.023917112    28372.625    803069.15 -0.00091916615 0.0026618404 -0.0024942609 
 1852000    2.6416075  0.023484569    28372.625    803557.08 0.0018968445 0.0035188094 -0.0016575786 
 1853000     2.632809  0.023323514    28372.625    804095.57 0.00039049521 0.0039724754 -0.0025602038 
 1854000    2.6505448  0.023526291    28372.625    804718.85 -0.00028137236 0.0035396691 -0.00034192715 
 1855000     2.657556  0.023286732    28372.625    805268.45 -0.0032800725 0.0040360434 0.0028850652 
 1856000    2.6519328  0.023281266    28372.625    805898.37 -0.0053407965 0.0052818303 0.0037529249 
 1857000    2.6573244  0.023904249    28372.625    806480.21 -0.0051369163 0.0066987461 0.0014134425 
 1858000    2.6557799  0.023602875    28372.625     806964.6 -0.006625302  0.006843461 -0.00047573144 
 1859000     2.626454  0.024427586    28372.625    807601.08 -0.0032212572 0.0065361937 0.00038084914 
 1860000    2.6408758  0.023828873    28372.625    808017.71 -0.0087055171 0.0088300483 -0.00071614861 
 1861000    2.6374125  0.023262386    28372.625     808351.4 -0.0067035784 0.0062977136 -0.00097719227 
 1862000    2.6338441  0.023311402    28372.625    808395.65 -0.0053351267 0.0042063927 -3.823043e-05 
 1863000    2.6192549   0.02394402    28372.625    808470.67 -0.0075108574 0.0057450748 0.00011948139 
 1864000    2.6366291   0.02306926    28372.625    808508.63 -0.0064394387 0.0026368466 0.0025998378 
 1865000    2.6254867  0.024656688    28372.625    808532.24 -0.0053589082  0.001531773 0.0037049099 
 1866000    2.6349728  0.023936744    28372.625    808267.89 -0.0043883146 -0.0014933891 0.0011103411 
 1867000     2.641276  0.023639522    28372.625    807969.76  -0.00254497 -1.7307886e-05 0.0017834697 
 1868000     2.652992  0.023072426    28372.625    807683.67 -0.0039923984 0.00013113361 0.0023604063 
 1869000    2.6438023  0.023850159    28372.625    807429.53 -0.0028893531 0.0027053379 -0.00056405833 
 1870000    2.6360746  0.024047037    28372.625    807201.41 -0.0039432397 0.0013817312 0.0009180855 
 1871000    2.6305943  0.023499234    28372.625    807065.05 -0.0024944339   0.00177965 -0.0012175176 
 1872000    2.6303632  0.023611325    28372.625    806969.07 0.0026044485 0.0014575859 -0.00043549561 
 1873000     2.631795  0.023907233    28372.625    807224.91 0.0044995303  0.001599143 -0.00031406247 
 1874000    2.6482509   0.02355468    28372.625    807658.05 0.0031449299 0.0029583497 -0.002934188 
 1875000    2.6328939  0.024194011    28372.625    808358.74 0.0046969923 -0.00020067215 -0.0040031069 
 1876000    2.6423902  0.023230241    28372.625    809044.07 0.0021933019 0.0025942943 -0.003394888 
 1877000    2.6466001  0.023062413    28372.625    809819.52  0.005264251 0.0017572265 -0.0016890291 
 1878000    2.6389915  0.023172502    28372.625    810485.92 0.0072850237 0.0019757547 -0.0022358949 
 1879000    2.6509551  0.023480664    28372.625    811139.92 0.0058750212 0.0024231897 -0.0033668408 
 1880000    2.6477849  0.023189884    28372.625     811635.7 0.0010659987 0.0018356611 -0.0045558293 
 1881000    2.6653977  0.023092451    28372.625       812004 -8.511705e-05 0.0013361429 -0.004301762 
 1882000    2.6528462  0.022998787    28372.625    812237.04 -0.0029086781 0.0056642705 -0.0075370056 
 1883000    2.6484849  0.023329547    28372.625    812388.28 -0.0034961898 0.0028223179 -0.0065104776 
 1884000    2.6404793   0.02344739    28372.625    812561.51 -0.0038142308 -7.7647138e-06 -0.0044009368 
 1885000    2.6415499  0.023139413    28372.625    812767.42 -0.0040211405 -0.0025026695 -0.0014361494 
 1886000    2.6452398  0.023639655    28372.625    813065.61 -0.002087391 -0.0049240512 -0.0010833212 
 1887000    2.6496462  0.023402014    28372.625    813531.09 -0.00015006916 -0.0028782755 -0.0024010001 
 1888000    2.6417337  0.024240712    28372.625    813942.86 -0.0043041294 -0.0011180562 -0.0030737664 
 1889000    2.6372471  0.023880017    28372.625    814252.63 -0.0014303244 -0.0028280715 -0.0028096644 
 1890000    2.6495747  0.023353301    28372.625    814591.73 -0.00036998172 -0.0023407857 -0.0043922023 
 1891000    2.6490463  0.023255302    28372.625     814736.6 -0.00064729873 -0.0010650381 -0.0058933577 
 1892000    2.6347442  0.023338727    28372.625    814560.61 -0.0031904251 0.00062805757 -0.005558335 
 1893000    2.6312105  0.024201767    28372.625    814291.24 0.00058286933 0.0023374928 -0.0081741008 
 1894000    2.6456167  0.023483717    28372.625    814179.51 -0.00032383407 -0.002031304 -0.0083751446 
 1895000    2.6475296  0.023552852    28372.625    814302.85 0.0035490521 0.00060295446 -0.0089734839 
 1896000    2.6463894  0.023679224    28372.625    814435.22 0.0015854227 -0.00058353505 -0.0082438672 
 1897000    2.6381888  0.024130349    28372.625    814514.89 0.00042385059 -0.0049529036 -0.0069890276 
 1898000    2.6549479  0.024908848    28372.625    814535.66 0.0025175426 -0.00080408901 -0.0076801994 
 1899000    2.6411115  0.023513453    28372.625    814254.35 0.00044735668 0.0020652697 -0.0073422758 
 1900000     2.651039  0.024062383    28372.625    814050.06  0.001381624 0.0025110538 -0.005569454 
 1901000    2.6340295  0.023424779    28372.625    813973.64 0.0025204078 0.0038848544 -0.0064563427 
 1902000    2.6331752  0.024415329    28372.625    813972.36 0.0071043164 0.0056080142 -0.0044703865 
 1903000    2.6527452   0.02381768    28372.625    814000.25 0.0036167088 0.0028133097 -0.0030694133 
 1904000    2.6407409  0.024069393    28372.625    814091.15 0.0053247844 0.0057287862 -0.0036794398 
 1905000    2.6489937  0.023482246    28372.625    814380.84 0.0012894439 0.0054004537 -0.0080891475 
 1906000    2.6470746  0.023345986    28372.625    814983.26 0.0016618882 0.0055678875  -0.00814961 
 1907000    2.6482265  0.024069872    28372.625    815688.99 0.00089700767 0.00096186757 -0.0094819335 
 1908000    2.6487168  0.023149048    28372.625    816222.69 0.0016290885  0.001459973 -0.0094269425 
 1909000    2.6434094  0.023128375    28372.625    816895.35 4.8532005e-05 -0.00051076346 -0.0097887337 
 1910000    2.6480227  0.023741309    28372.625    817512.86 -0.0023215102 0.0042104438 -0.0077891928 
 1911000    2.6523328  0.023526032    28372.625    818203.67 -0.0028016396 0.0017675231 -0.0091295145 
 1912000    2.6437077  0.024605483    28372.625    818786.95 -0.0007157563 -0.0012115396 -0.0096526785 
 1913000    2.6426376  0.023584417    28372.625    819178.31 -0.0029314933 -0.0041464568 -0.0073704373 
 1914000    2.6403333  0.023373693    28372.625    819467.05 -0.0027187597 -0.0013803048 -0.0083026489 
 1915000    2.6452127  0.023363046    28372.625    819936.73 -0.003173232 0.0012310866 -0.0069782521 
 1916000    2.6337068  0.023109936    28372.625    820447.75 -0.003858589 0.0017005682 -0.0065808168 
 1917000    2.6332393  0.023691806    28372.625    821016.98 -0.0024633036 0.0030924471 -0.0060383857 
 1918000     2.619054  0.024503041    28372.625    821715.95 -0.0016044595 0.0051552337 -0.0055453163 
 1919000    2.6282341  0.024408806    28372.625    822276.53 -0.0011781674 -0.00048329276 -0.0055909462 
 1920000      2.64844  0.023937966    28372.625    822627.12 0.0005185554 -0.0010583531 -0.0047619521 
 1921000    2.6501888  0.023011231    28372.625    822799.99 0.0011157827 -0.0027741843 -0.0026871799 
 1922000    2.6415461  0.023068662    28372.625    822824.31 0.0012036785 -0.0031123272 -0.0023380213 
 1923000    2.6406603  0.023176965    28372.625    822918.99 0.0028534331 -0.0021683151 0.0001177143 
 1924000    2.6352775   0.02324624    28372.625    823153.64 0.0037588134 -0.0013370013 -0.00094793369 
 1925000    2.6435027  0.023449593    28372.625    823425.79  0.004372352 -0.0048007448 -0.0001149146 
 1926000    2.6518209  0.023879184    28372.625    823565.77 0.0029083591 -0.0039971986 -0.0024090797 
 1927000    2.6360907  0.023718043    28372.625    823651.75 0.0039267223 -0.005283725 -8.2738538e-05 
 1928000     2.662236   0.02318514    28372.625    823836.66 0.00027942761 -0.0030713841 -0.003222529 
 1929000    2.6389491  0.023350519    28372.625    824095.99 0.00022928619 -0.0031817324 -0.0026698874 
 1930000     2.643271  0.023539788    28372.625    824495.07 0.0011938359 -0.0025537547 -0.0029160323 
 1931000    2.6366932  0.023970941    28372.625    824744.07 -0.0087428117 -0.00088798603 -0.0029170097 
 1932000    2.6490041  0.023748312    28372.625    824906.87 -0.005771432 0.0017096952 -0.00030093048 
 1933000    2.6400896  0.023204026    28372.625    825057.47 -0.007065197 0.0029343662 -0.0031316667 
 1934000    2.6367289  0.023134345    28372.625    825276.82 -0.0063727524 0.0054509103 -0.0024380584 
 1935000    2.6345922  0.023692553    28372.625     825434.9 -0.0051423752 0.0033849268 0.00072015736 
 1936000    2.6434132  0.023704633    28372.625    825617.94 -0.004794845 0.0021846434 0.0031375366 
 1937000    2.6337566  0.023367451    28372.625    825949.93 -0.0065978356 0.0017468981 0.0019939402 
 1938000     2.653281  0.023179909    28372.625    826314.71 -0.0059734741 0.0026069229 0.0025936903 
 1939000    2.6432485   0.02321006    28372.625    826708.67 0.0001030036 0.0027124021 0.0030381789 
 1940000    2.6449212  0.023481119    28372.625    827076.25 0.0021203966 0.00071971781 -0.00069935397 
 1941000    2.6495825  0.023084284    28372.625    827434.14 0.0016576273 6.7453843e-05 -0.0032271068 
 1942000    2.6393424  0.024102827    28372.625    827843.75  0.003917037 -0.00060066938 -0.0052794931 
 1943000    2.6473093  0.023770616    28372.625    828374.85  0.001205837  0.002136297 -0.0039097967 
 1944000    2.6343896  0.023446084    28372.625    828787.24 0.0040246094 0.00011225962 -0.0039774574 
 1945000     2.641001  0.024032974    28372.625    829242.96 0.0019617503 0.00091882921 -0.00011906598 
 1946000    2.6337248  0.023560062    28372.625    829845.16 0.0015289905 -0.0019523895 0.0016546981 
 1947000    2.6425737  0.024058682    28372.625    830230.67 0.0014594229 -0.0016780551 0.00030377431 
 1948000    2.6401208  0.024477951    28372.625    830454.14 0.0020137967 -0.0017046252 0.00056664527 
 1949000    2.6298696  0.024195769    28372.625    830565.57 -0.00070465977 -0.0038607571 -0.0012828887 
 1950000    2.6448967  0.023970793    28372.625    830787.49 0.0011358696 -0.0017177818 0.00041932596 
 1951000    2.6299354  0.023143486    28372.625    831317.26 0.0017198883 -0.00085890211 -0.0012862973 
 1952000    2.6437577  0.024727904    28372.625    832079.68 0.0031044979 -0.00078139874 -0.00044134484 
 1953000    2.6529455  0.023352744    28372.625    832785.35  0.003622467 -0.0017294291 0.00028511656 
 1954000    2.6553188  0.023151606    28372.625     833500.9 0.0026194886 -0.0025780595 0.0027697883 
 1955000    2.6261264  0.024740262    28372.625    834151.12  0.003482908 0.00043404789 -0.00054718851 
 1956000    2.6402069  0.023919406    28372.625    834736.12 -6.5178117e-05 -0.0023496226 -0.0019891252 
 1957000    2.6409206   0.02434552    28372.625    834862.48 -0.0012602426 -0.0018012541 0.0013958416 
 1958000    2.6347148  0.023663484    28372.625    834842.39   0.00119121 -0.00094320159 0.0017394764 
 1959000    2.6504707  0.023668125    28372.625    834748.07 0.0001888323 -0.0031636731  0.002426065 
 1960000    2.6336294  0.023103763    28372.625    834712.54 0.0047591265 -0.0017252445 0.0014910501 
 1961000    2.6419326  0.023841473    28372.625     834676.5  0.004183864 -0.00088286918 0.0017505661 
 1962000    2.6343567  0.023168428    28372.625    834813.44 0.0054043264 0.0026918986 0.0028526059 
 1963000    2.6371749  0.023525315    28372.625    834950.31  0.004665498 0.0043635555 0.00015511959 
 1964000    2.6402036  0.023442277    28372.625    835013.46 0.0033425591 0.0030986187 0.0041342806 
 1965000    2.6386043  0.024552657    28372.625     834977.1 0.0030484005 0.0035361271 0.0030105187 
 1966000    2.6498047  0.023665074    28372.625    835091.09 0.0032283778 0.0029719255 0.0015639324 
 1967000    2.6381042  0.023788172    28372.625    835360.73 0.0010461395 0.0036616057 0.0027404344 
 1968000    2.6392705   0.02335114    28372.625    835612.76 0.00083250386 0.0023632994 0.0022261954 
 1969000    2.6439274  0.023586602    28372.625    835625.82 0.0023193812 0.0017585102 0.0037749506 
 1970000    2.6478142  0.023348636    28372.625    835459.54 0.0038912681 0.0012970934 0.0035765082 
 1971000    2.6402338  0.023309064    28372.625    835531.85 0.0045475609 0.0016353053 0.0049003289 
 1972000    2.6500492  0.024061903    28372.625    835517.68 0.0039339036 0.0020448968  0.004304361 
 1973000    2.6455748   0.02388216    28372.625    835461.29 0.0021053446  0.004902152 0.0035481731 
 1974000    2.6448426  0.023625519    28372.625    835354.83 0.0019245254 0.0060069317   0.00534391 
 1975000    2.6387347  0.024894665    28372.625    835156.58 0.0025048604 0.00010694029 0.0037928553 
 1976000    2.6372322  0.024771037    28372.625    835158.85 0.0020374006 0.0013746851 0.0013186848 
 1977000    2.6457714  0.023286662    28372.625    835306.73 0.0032324356 0.0029399182 0.0016990767 
 1978000    2.6564582  0.024246242    28372.625    835633.13  0.003095527 0.0043140392 0.0018614015 
 1979000    2.6368248  0.023487602    28372.625     836002.4 0.00048011607 0.0040187882 0.0018076045 
 1980000    2.6421748  0.023866238    28372.625    836436.05 -0.00022807138 0.0027003891 0.0032376415 
 1981000    2.6441366  0.024120703    28372.625    837040.22 -0.0016831138   0.00328277 0.0049479123 
 1982000     2.624812  0.024775026    28372.625    837815.09 -0.00047118907 -0.0019251455 0.0013632689 
 1983000    2.6390146  0.023579056    28372.625    838593.65 -0.0040885935 -0.00022222063 0.0012273343 
 1984000    2.6299221  0.023163567    28372.625    839309.76 -0.0054433395 -2.9235931e-05 0.0031885494 
 1985000    2.6408472  0.024121462    28372.625    840106.71 -0.0034883147 0.0026506688 0.0041935112 
 1986000    2.6432918  0.023170771    28372.625    840690.16 -0.0071311798 0.0017963679 0.0037577493 
 1987000    2.6404387  0.023427741    28372.625    841274.78 -0.0047468752 0.0022813197 0.0031447348 
 1988000    2.6381279  0.023582276    28372.625    842070.61 -0.0063164162 0.0025918328 0.0046380031 
 1989000    2.6325215  0.024033638    28372.625    842914.37 -0.0061020222 0.0027585336 0.0016305688 
 1990000     2.642949  0.023719213    28372.625    843674.31 -0.0056745442 0.0024260776 0.0032919615 
 1991000    2.6522913  0.023252457    28372.625    844241.85 -0.0063064532 0.0051534734 -0.0029677862 
 1992000    2.6432744  0.023643951    28372.625     844773.3 -0.0053253467 0.0057066718 -0.0056361452 
 1993000    2.6452544  0.023305954    28372.625    845264.11 -0.0048067916 0.0062889937 -0.006157183 
 1994000    2.6519642  0.023973031    28372.625    845723.35 -0.0027049789 0.0046998941 -0.0053811514 
 1995000    2.6445326  0.024031957    28372.625    846174.19 -0.0060515344 0.0073196827 -0.0060844259 
 1996000    2.6190957  0.024436142    28372.625    846640.86 -0.0068237496 0.0060184653 -0.0080999878 
 1997000    2.6422913   0.02357762    28372.625    847100.09 -0.0016742448 0.0065849636 -0.003838264 
 1998000    2.6374864  0.023735942    28372.625    847568.83 -0.00090989774 0.0084242784 -0.0027662399 
 1999000     2.635182  0.023642407    28372.625    847935.53 -0.0017803647 0.0028152439 -0.001212287 
 2000000    2.6454911  0.023394352    28372.625    848155.88 -0.0030541509 -0.0003269552 -0.0012984666 
Loop time of 736.282 on 1 procs for 2000000 steps with 256 atoms

Pair  time (%) = 10.2948 (1.39822)
Neigh time (%) = 12.2569 (1.6647)
Comm  time (%) = 5.24025 (0.711718)
Outpt time (%) = 0.184725 (0.0250889)
Other time (%) = 708.305 (96.2003)

Nlocal:    256 ave 256 max 256 min
Histogram: 1 0 0 0 0 0 0 0 0 0
Nghost:    154 ave 154 max 154 min
Histogram: 1 0 0 0 0 0 0 0 0 0
Neighs:    112 ave 112 max 112 min
Histogram: 1 0 0 0 0 0 0 0 0 0

Total # of neighbors = 112
Ave neighs/atom = 0.4375
Neighbor list builds = 155957
Dangerous builds = 3224
#	run			10000
	unfix			1
	uncompute		myKE
	uncompute		myPE
	uncompute		myStress
	uncompute		flux
	uncompute		myDis
	unfix			JJ

	next seed
	next iseed
jump lmp.in.gk loop_seed
variable iseed loop 10
variable seed index 11111 22222 33333 44444 55555 66666 77777 88888 99999 11112
clear

# Lennard-Jones
#Prepare Geometry---------------------------------------------------------------
units			lj
atom_style		atomic
read_data		lmp.in.x0.1
  orthogonal box = (0 0 0) to (30.5 30.5 30.5)
  1 by 1 by 1 MPI processor grid
  256 atoms
#Initialize Structure-----------------------------------------------------------
#mass           	1  1.0
#group         		Ar type = 1
#LJ Potentials------------------------------------------------------------------
pair_style		lj/cut 2.5
pair_coeff		* * 1.0 1.0
pair_modify          	shift yes
#pair_modify   	tail no

#Variables----------------------------------------------------------------------
#LJ Parameters
variable    	kB 		equal 1.3806504e-23 	# [J/K] Boltzmann
variable	sigma_Ar 	equal 3.4e-10 		# m
variable	eps_Ar		equal 1.67e-21		# J
variable	mass_Ar		equal 6.63e-26		# kg
variable	tau_Ar		equal 2.1423e-12	# s
#thermo Parameters
variable    	T_melt 		equal 300*(${kB}/${eps_Ar})
variable    	T_melt 		equal 300*(1.3806504000000001236e-23/${eps_Ar})
variable    	T_melt 		equal 300*(1.3806504000000001236e-23/1.6699999999999999942e-21)
variable	T_0K		equal 0.00001
variable	T_2_5K		equal 2.5*(${kB}/${eps_Ar})
variable	T_2_5K		equal 2.5*(1.3806504000000001236e-23/${eps_Ar})
variable	T_2_5K		equal 2.5*(1.3806504000000001236e-23/1.6699999999999999942e-21)
variable	T_5K		equal 5*(${kB}/${eps_Ar})
variable	T_5K		equal 5*(1.3806504000000001236e-23/${eps_Ar})
variable	T_5K		equal 5*(1.3806504000000001236e-23/1.6699999999999999942e-21)
variable	T_10K		equal 10*(${kB}/${eps_Ar})
variable	T_10K		equal 10*(1.3806504000000001236e-23/${eps_Ar})
variable	T_10K		equal 10*(1.3806504000000001236e-23/1.6699999999999999942e-21)
variable	T_15K		equal 15*(${kB}/${eps_Ar})
variable	T_15K		equal 15*(1.3806504000000001236e-23/${eps_Ar})
variable	T_15K		equal 15*(1.3806504000000001236e-23/1.6699999999999999942e-21)
variable	T_320K		equal 320*(${kB}/${eps_Ar})
variable	T_320K		equal 320*(1.3806504000000001236e-23/${eps_Ar})
variable	T_320K		equal 320*(1.3806504000000001236e-23/1.6699999999999999942e-21)

variable   	dt 		equal 0.002
variable	quench_rate	equal 1.0
variable	quench_length 	equal 10000
#kappa parameters
variable    	p 		equal 200000 		# correlation length
variable    	s 		equal 5  		# sample interval
variable    	d 		equal $p*$s 		# dump interval
variable    	d 		equal 200000*$s 		
variable    	d 		equal 200000*5 		

#SED parameters
variable	w_step		equal 2^5
variable	w_total		equal 2^16
variable	t_total		equal 2^18
variable	num_ffts	equal ${t_total}/${w_total}
variable	num_ffts	equal 262144/${w_total}
variable	num_ffts	equal 262144/65536

#------------ RUN TEMP ---------------------------------------------------------------------
variable 	T_run 		equal ${T_320K}
variable 	T_run 		equal 2.6455576526946114058
#------------ RUN TEMP ---------------------------------------------------------------------

log 	log_heat_${iseed}.lammps
log 	log_heat_3.lammps
