	reset_timestep  	0
	fix 			1 all nve
	compute   		myKE all ke/atom
	compute   		myPE all pe/atom
	compute   		myStress all stress/atom virial
	compute   		flux all heat/flux myKE myPE myStress
	variable  		Jx equal c_flux[1]/vol
	variable  		Jy equal c_flux[2]/vol
	variable  		Jz equal c_flux[3]/vol
	fix       		JJ all ave/correlate $s $p $d c_flux[1] c_flux[2] c_flux[3] type auto file J0Jt_${iseed}.dat ave running
	fix       		JJ all ave/correlate 5 $p $d c_flux[1] c_flux[2] c_flux[3] type auto file J0Jt_${iseed}.dat ave running
	fix       		JJ all ave/correlate 5 200000 $d c_flux[1] c_flux[2] c_flux[3] type auto file J0Jt_${iseed}.dat ave running
	fix       		JJ all ave/correlate 5 200000 1000000 c_flux[1] c_flux[2] c_flux[3] type auto file J0Jt_${iseed}.dat ave running
	fix       		JJ all ave/correlate 5 200000 1000000 c_flux[1] c_flux[2] c_flux[3] type auto file J0Jt_5.dat ave running
#	fix       		JJ all ave/correlate $s $p $d c_flux[1] c_flux[2] c_flux[3] type auto ave running
#	dump			JJ all custom 1000000 J0Jt.dat f_JJ[3] f_JJ[4] f_JJ[5]
	compute 		myDis all msd
	thermo_style 		custom step temp press vol c_myDis[4] v_Jx v_Jy v_Jz
	thermo			1000
	timestep		${dt}
	timestep		0.0020000000000000000416
	run			2000000
Memory usage per processor = 3.08201 Mbytes
Step Temp Press Volume myDis[4] Jx Jy Jz 
       0    2.6417081  0.023312189    28372.625            0 0.0016285133 -0.00054335519 0.00020893207 
    1000    2.6473148  0.023051807    28372.625    29.875844 0.0032009632 -0.0010448053 -1.4330929e-05 
    2000    2.6486838  0.023149159    28372.625    113.61153  0.007268442 -0.001282424 -0.00046299604 
    3000    2.6450101  0.023817481    28372.625    243.75483  0.004989778 -0.0026363799 -0.0013390773 
    4000    2.6198688  0.024871035    28372.625    413.51528  0.003449643 -0.0042910029 -0.002353642 
    5000    2.6493871  0.023536344    28372.625    619.80761 0.0048789038 -0.00054312418 -0.00020550645 
    6000    2.6518121  0.023898414    28372.625    859.98127 0.0055186441 0.0019749253 0.0027208606 
    7000    2.6385219  0.024319337    28372.625     1139.989 0.0038819601 0.0022880001 -0.0026102597 
    8000    2.6456868  0.024272323    28372.625    1443.0424 0.0041341198 0.00057491769 -0.0014107575 
    9000     2.635807  0.023800703    28372.625     1759.809 0.0044082569 0.0025654288 0.00061090577 
   10000    2.6462748  0.023817523    28372.625    2092.5373  0.004528801 0.00082573755 0.0023986375 
   11000    2.6569976  0.023442849    28372.625    2434.1702 0.0031912416 -0.00090275118 0.00037078649 
   12000    2.6441289   0.02363144    28372.625    2779.6669 -0.00051339891 0.0013283019 -0.00057983631 
   13000    2.6498441  0.023684263    28372.625    3147.7745 -0.00096010592 0.00073242036 0.0010917563 
   14000    2.6369926  0.023692616    28372.625    3517.5372 -0.0057734125 0.0014942263 0.00079529106 
   15000     2.643217   0.02473351    28372.625    3881.9273 -0.0063937028 0.0043695153 -0.0021242799 
   16000    2.6369907  0.023354066    28372.625    4246.0577 -0.0060815037 0.0062754342 -0.0064578042 
   17000    2.6445544  0.023273699    28372.625     4622.736 -0.0079035299 0.0061190894 -0.0059111495 
   18000    2.6419515  0.023186128    28372.625    4984.0778 -0.0074579461 0.0058685807 -0.0045362183 
   19000    2.6425556  0.023185672    28372.625    5346.1306 -0.0078870187 0.0066559093 -0.0030144137 
   20000    2.6448248  0.023439284    28372.625    5732.4715 -0.0073172414 0.0050284679 -0.0014373133 
   21000    2.6451837  0.024289065    28372.625    6140.9304 -0.0049518828 0.0041746137 0.0033393262 
   22000    2.6584254  0.023321827    28372.625    6560.7379 -0.0035063216 0.0031082564 0.0028461401 
   23000    2.6491924  0.023191436    28372.625    7000.5759 -0.0018592243 0.0024572131 0.0014339513 
   24000    2.6459158  0.024704167    28372.625    7434.0375 -0.0028328362 0.0013143317 -0.00071497524 
   25000    2.6535268  0.023322802    28372.625    7859.6817 -0.0030562716 0.0042298374 -0.0028500049 
   26000    2.6597118  0.023921284    28372.625    8294.8963 -0.0038768335 0.0046680779 -0.0020871335 
   27000    2.6356067  0.024519803    28372.625    8741.9921 -0.0098909567  0.007452583  -0.00219726 
   28000    2.6471063  0.024204783    28372.625    9187.8412 -0.0043437265 0.0057180792 -0.000886878 
   29000    2.6492238  0.023443348    28372.625    9609.0776 -0.0029036216 0.00052730003 -0.0045761716 
   30000    2.6327262  0.024179822    28372.625    10030.456 -0.0013383702 -0.0024263852 -0.0070936661 
   31000    2.6449597  0.023574732    28372.625    10455.976 0.00028822279 0.00048109312 -0.00015951593 
   32000    2.6444326  0.023374475    28372.625    10878.086 -0.0021231747 0.00082004788 -0.0040145169 
   33000     2.639008  0.023563483    28372.625     11265.23 -9.9130896e-06 0.00068055504 -0.0034672706 
   34000    2.6606292  0.023292551    28372.625    11629.303 -0.00054316848 0.00055738723 -0.0031391309 
   35000     2.643859  0.023373254    28372.625    11991.838 -0.00017860714 0.0011808187 -0.0037051964 
   36000    2.6337218  0.024028139    28372.625    12377.915 -0.0004893601  0.001508861 -0.0021145497 
   37000    2.6437835  0.024486955    28372.625    12798.021 0.0003017932 0.0032965554 -0.0005842526 
   38000    2.6511102  0.023996738    28372.625    13233.336 -0.0015831274 0.0020112909 0.00099849643 
   39000    2.6506758  0.023419185    28372.625    13660.005 0.00063363347 0.0036713209 0.0024206574 
   40000    2.6506813  0.023596908    28372.625    14073.031 0.0010026978 0.0015774672 0.0041419982 
   41000    2.6492774  0.023691619    28372.625    14529.929 0.00092513068 -0.00041833816 0.0045739254 
   42000    2.6502968  0.023263454    28372.625    14993.075 -0.00028807032 0.0021680001 0.0019800579 
   43000    2.6494388  0.023344908    28372.625    15464.201 0.0029445198 7.3371545e-05 0.0019827979 
   44000    2.6352803  0.024855717    28372.625    15916.696  0.001631089  0.010007852 0.0025393257 
   45000    2.6525402  0.025261272    28372.625    16296.938 0.0020416784 0.0064364379 0.00074794685 
   46000    2.6552982  0.023446743    28372.625    16653.641 0.0031132854  0.007194642 0.00051831156 
   47000    2.6499712  0.023472695    28372.625    17006.516 0.0015752051 0.0055060923  0.002612808 
   48000    2.6370101  0.024486256    28372.625    17367.006 0.0001455772 0.0068756718 0.0012788733 
   49000    2.6613457  0.023544439    28372.625     17731.13 0.00018559149 0.0057514233 0.00016714294 
   50000    2.6089853  0.025807161    28372.625    18119.514  0.002437928 0.0040997232 -0.0014955267 
   51000    2.6448433   0.02347201    28372.625    18551.134 0.0011600655 0.0047333338 -0.0034716945 
   52000    2.6377513  0.024698641    28372.625    18983.388 -0.0029307769 0.0032812194 -0.003648629 
   53000    2.6440139  0.024385764    28372.625    19401.338 -0.0014109616 0.0020647445 -0.0018265669 
   54000    2.6495233  0.023511769    28372.625    19819.448 0.0017410367 0.0006075453 -0.00079149947 
   55000    2.6366598  0.024109805    28372.625    20270.294 0.00073886615 0.0004924685 0.0002049652 
   56000    2.6383451  0.023540174    28372.625    20747.934 0.00042880201 -0.00069524909 0.00064455888 
   57000    2.6468891  0.023346858    28372.625    21219.812 0.00094952493 0.00045774634 -0.0024119025 
   58000    2.6470835    0.0234453    28372.625     21720.52 0.0011267159 0.0019068832 -0.0010371435 
   59000    2.6398525  0.023870881    28372.625    22216.908 0.0027934486 -0.0022591872 -0.00068523707 
   60000    2.6277026  0.024344837    28372.625    22665.963 0.0047593342 0.00071858025 0.0016368787 
   61000    2.6425096  0.024334021    28372.625    23123.034 0.00070954617 -0.00052169568 -0.00046076835 
   62000    2.6427891  0.024087131    28372.625    23516.339 0.0022798224 -0.0032271059 0.0034309914 
   63000    2.6575948  0.023478438    28372.625    23933.491 0.0024823758 -0.0030213938 -0.00043376074 
   64000      2.64657  0.024134238    28372.625    24360.794 0.0025278935 0.0015870167 -0.00098771405 
   65000    2.6226992  0.025081864    28372.625    24799.872 0.0022176313 0.0042230182 -0.0036907751 
   66000    2.6554784  0.023131301    28372.625    25222.959 0.0026880029 0.0020325617 -0.004806179 
   67000    2.6346751  0.023126669    28372.625     25638.63 0.0032736414 0.0017590044 -0.0051168884 
   68000    2.6551785  0.024012286    28372.625    26060.886 0.0017725152 0.0044052786 -0.0066310535 
   69000    2.6526519  0.023330734    28372.625    26487.714 0.0016586741 0.0059716611 -0.0048199535 
   70000    2.6324343  0.024624854    28372.625    26900.237 0.0025336843 0.0022924527 -0.0034474739 
   71000    2.6447154  0.023514806    28372.625    27260.365 0.0028285338 0.0020721222 -0.0053929257 
   72000    2.6379438  0.023267548    28372.625    27616.697 0.0032478775 0.0028717207 -0.0035672538 
   73000    2.6451462  0.023967255    28372.625    27986.353 0.0039828989  0.003546792 -0.0034809664 
   74000    2.6443273   0.02397152    28372.625    28381.356 0.0024352815 0.0017903764 -0.0023636046 
   75000    2.6486642  0.023661213    28372.625     28834.51 0.00020325059 0.0033185124 0.0010351113 
   76000    2.6432421  0.023426015    28372.625    29278.442  0.003636475 0.0022324622 -0.0039270526 
   77000    2.6509084  0.023737884    28372.625    29742.707 0.0038965069 0.0030028846 -0.0027948046 
   78000    2.6288476  0.023211039    28372.625    30198.605  0.004352864 0.0012983136 -0.0017675959 
   79000    2.6326564  0.023783107    28372.625    30666.607 0.0030122521 0.0012737511 0.00042535784 
   80000    2.6397761  0.023503877    28372.625    31195.236 0.0018332447 0.0044906059 0.00071052152 
   81000    2.6411862  0.023300409    28372.625    31726.033 0.0017855202 0.0019899681 -0.00069102094 
   82000    2.6443038  0.023805931    28372.625    32231.405 0.00022515011 0.0029423492 -0.00082328059 
   83000     2.642452  0.023969571    28372.625    32725.965 0.0020001947 0.00045189156 0.00079787048 
   84000    2.6367116  0.024215228    28372.625    33192.664 0.0018935206 0.00067076284 -0.00042284807 
   85000    2.6387147  0.023483401    28372.625    33650.547  0.001241703 -0.0014184361 -0.00014007468 
   86000    2.6429766  0.023402403    28372.625    34106.212 0.0019020455 0.00086742132 8.4352348e-05 
   87000    2.6562345  0.023309185    28372.625    34615.778 0.0025353302 0.0017056027 0.00036693182 
   88000    2.6401551  0.023270446    28372.625    35183.328 0.0018517333 0.0018058189 -0.00081532528 
   89000    2.6524379  0.023689819    28372.625    35766.567 0.0029718721 -0.00010228188 -0.003261944 
   90000    2.6452265  0.024273863    28372.625    36355.858 -0.00027633815 0.0016471228 -0.0036859096 
   91000    2.6431991   0.02408345    28372.625    36944.399 -1.3805802e-05 -0.001226306 -0.00013036254 
   92000    2.6658821   0.02349725    28372.625    37512.375  0.001927884 -0.00046840998 -0.00038963247 
   93000    2.6498661  0.023847045    28372.625     38066.14 0.0049198283 -0.00021450207 -0.0030084545 
   94000    2.6577949  0.023626341    28372.625     38589.37 0.0065541892 -0.0032781076 -0.001583714 
   95000    2.6399578  0.024210973    28372.625    39117.642 0.0083708588 -2.9080798e-05 -0.0011425363 
   96000    2.6526316  0.023432738    28372.625    39604.263 0.0092281527 -0.00075631142 -0.0023653541 
   97000    2.6367304  0.024528118    28372.625    40044.557 0.0053687414 0.0028964679 -0.0022458216 
   98000    2.6481502  0.023345962    28372.625    40452.734   0.00594784 0.0014323083 -0.0025625499 
   99000    2.6371058  0.024876109    28372.625    40831.591 0.0041072087 -0.0024657033 -0.002467831 
  100000    2.6404736  0.023518278    28372.625    41207.297 0.0053113975 0.0033963506 -0.0041787467 
  101000    2.6463428  0.023446413    28372.625    41622.077  0.001853215 0.0033414135 -0.0013091881 
  102000    2.6505128  0.024621383    28372.625    42056.536 0.0039043433 -0.0040179093 -0.0033204128 
  103000    2.6471829   0.02403917    28372.625    42464.601  0.005798438 0.00029714488 -0.0028699689 
  104000    2.6444202  0.024016479    28372.625    42825.634 0.0062726309 -0.0023066872 -0.0010239092 
  105000    2.6422138  0.023597161    28372.625    43215.116 0.0053119393 7.0147619e-05 -0.0018217237 
  106000    2.6280517  0.024428852    28372.625    43618.013 0.0089460054 -0.00030980823 -0.0047092108 
  107000    2.6436207  0.023284022    28372.625     44005.55 0.0077694622 0.0018305249 -0.0036011695 
  108000    2.6478937  0.024478068    28372.625    44411.389 0.0023808033 0.0019994334 -0.0019436812 
  109000    2.6350612  0.024150703    28372.625    44847.336  0.001799696 0.0061318567 -0.0035773235 
  110000     2.644116  0.024281389    28372.625    45294.568 0.0021264263 0.00074812691 -0.0045556912 
  111000    2.6271056  0.024799593    28372.625    45756.436 0.00072211614 0.00028369748 -0.0068726804 
  112000    2.6481261   0.02372736    28372.625    46207.634 0.0077871152 -0.0017788323 -0.0088588657 
  113000    2.6583976  0.023197735    28372.625    46677.596 0.0059838544 -0.0026753698 -0.0074357851 
  114000    2.6561983   0.02357081    28372.625    47144.744 0.0036724562 -0.0039285797 -0.0057627156 
  115000    2.6332121  0.024648803    28372.625    47644.122 0.0018561791 -0.0050510645 -0.0043888612 
  116000    2.6666089  0.023169793    28372.625    48203.854 -0.00036006667 -0.0043813206 0.0007740903 
  117000    2.6400176  0.024351947    28372.625     48750.34 -0.00057856932 -0.0038044265 -6.8406388e-05 
  118000    2.6462331   0.02398314    28372.625    49331.294 0.00091826825 -0.0029798681 -0.0032476102 
  119000     2.666443  0.023120273    28372.625    49921.077 -0.00056604618 -0.0014878517 -0.0030268848 
  120000    2.6474818  0.023219571    28372.625    50511.748 -0.0058178283 -0.00051316793 -0.00047593204 
  121000    2.6292671  0.024744581    28372.625    51015.576 -0.0051462819 0.0079968679 0.0021215832 
  122000    2.6397535  0.023689258    28372.625    51531.601 -0.0034698092 0.0032988205 -0.0014707733 
  123000    2.6556279  0.023306711    28372.625    52047.868 -0.00019667719 0.0055106856 0.0017984969 
  124000    2.6456725  0.023535898    28372.625    52543.635 0.00052680847 0.0034541871 -4.391693e-05 
  125000    2.6482021  0.023461671    28372.625    53001.605 0.00070117662 0.0038992167 -0.00069643296 
  126000    2.6263851  0.024927479    28372.625    53463.584 -7.7325809e-05 0.0099460118 0.0020572846 
  127000    2.6361077  0.023856046    28372.625    53864.327 0.0015188326  0.006051449 0.0020768551 
  128000    2.6423915  0.023937592    28372.625    54232.956 0.00032380946 0.0055039517 0.0007366008 
  129000    2.6452966  0.023147983    28372.625    54574.225 -0.00017826772 0.0056341223 0.0014286968 
  130000    2.6636648  0.023152078    28372.625    54883.399 0.0013961135 0.0077347989 -0.0025407039 
  131000     2.647076   0.02323603    28372.625    55258.543 0.0044548732 0.0038407307 -0.0017469098 
  132000    2.6503135  0.022990267    28372.625    55625.005 0.0030808371 0.0029757095 0.0010916408 
  133000    2.6387446  0.023545303    28372.625    56019.598 0.0026470497 0.0030645394 -0.00051134673 
  134000    2.6404909  0.024639669    28372.625    56438.598 0.0024918729 -0.001393772 0.00032922465 
  135000    2.6383838  0.023252865    28372.625     56824.38 0.0030581702 -0.00079671548 -0.00094996106 
  136000    2.6421477  0.023495619    28372.625    57252.004 0.0024966647 0.0013240511 0.00063493986 
  137000    2.6359115  0.023649948    28372.625    57729.933 0.0031685818 0.00036486418 -0.00022187522 
  138000    2.6393267  0.025122844    28372.625    58222.436 -0.0012596573 0.0031435324 -0.002006172 
  139000    2.6435821  0.023968459    28372.625    58790.378 0.00038187346 -0.0021710065 0.00019762516 
  140000    2.6436005  0.023808697    28372.625    59344.623 0.00036643876 -0.0023162311 -0.0013492174 
  141000     2.653927  0.023151128    28372.625    59920.018 0.00012150913 -0.0014762039 -6.5214655e-05 
  142000    2.6460329  0.023250229    28372.625    60472.846 5.4937101e-05 -0.0025061896 0.0011292987 
  143000    2.6588571   0.02323366    28372.625    61012.167 0.0013190283 -0.0026387316 0.0021047541 
  144000    2.6483779  0.024596009    28372.625     61505.61 0.00046322144 -0.0010619532 0.0016942102 
  145000    2.6422269  0.023924179    28372.625    61993.628 -0.00068693972 -0.0034289112 0.0032899793 
  146000    2.6464619  0.023415213    28372.625    62489.806 -0.003831303 -0.0030470635 0.0028210396 
  147000    2.6536433  0.023897691    28372.625     63012.24 -0.0060309462 0.00035588884 0.0047765228 
  148000    2.6458123  0.023746084    28372.625    63475.839 -0.0076749311 0.00055552597 0.0025595824 
  149000    2.6384178  0.023156247    28372.625    63929.575 -0.0057439793 0.00075138884 0.0036400924 
  150000    2.6556065  0.023179822    28372.625    64407.449 -0.0058318318 0.0017000419 -0.00030186888 
  151000    2.6504249   0.02444562    28372.625    64853.066 -0.0073187098  0.004831893 0.00047601681 
  152000    2.6483517  0.023853051    28372.625    65330.743 -0.0026672819 0.0017609393 -0.00049709977 
  153000    2.6460879  0.023470794    28372.625    65828.214 -0.00038846343  0.000471264 -0.0014580347 
  154000    2.6517217  0.023151618    28372.625    66278.195 -0.00078718055 -0.0016426104 -0.0022673941 
  155000    2.6377221  0.023173114    28372.625    66723.728 -0.00076272329 -0.003757663 -0.0043090432 
  156000    2.6334597  0.024153792    28372.625     67216.51 -0.00071959564 -0.0046809492 -0.0024164456 
  157000    2.6402313  0.023763724    28372.625    67687.021 5.8991032e-05 -0.0030803989 -0.0075069412 
  158000    2.6422492  0.024038856    28372.625    68201.863 -0.00059023271 -0.0008139657 -0.0036737728 
  159000    2.6548414  0.023888321    28372.625    68715.696 0.0011612945 -0.0052119531 -0.0078505168 
  160000    2.6435116  0.023189807    28372.625    69175.811  0.000218092 -0.0010901102 -0.0080463211 
  161000     2.645871  0.023343946    28372.625    69663.481 0.00094044346 -0.002451674 -0.0067912546 
  162000     2.644648  0.023443989    28372.625     70134.02 -0.0016140902 0.0002329277 -0.0068026977 
  163000    2.6599706  0.024237182    28372.625    70602.473 -0.0049932953 0.00041458164 -0.0054574467 
  164000    2.6405226  0.023541311    28372.625    71093.984   0.00049657 -0.00099062837 -0.0092464471 
  165000    2.6485016  0.023947449    28372.625    71634.854 -0.0020362323 -0.00048298071 -0.0099689185 
  166000    2.6299146  0.023625223    28372.625    72274.404 -0.0048547204 -0.00016702872 -0.007912765 
  167000    2.6586242  0.023801211    28372.625    72925.781 -0.0072717241 -0.0031628455 -0.0099176993 
  168000    2.6497161   0.02348082    28372.625    73614.773 -0.0059973497 -0.0058906184 -0.012504607 
  169000     2.646347  0.024281331    28372.625    74178.132 -0.0049890468 -0.0030223438 -0.014389931 
  170000     2.648776  0.023173744    28372.625    74650.479  -0.00281681 -0.00060324378 -0.012305406 
  171000    2.6429305  0.023739004    28372.625    75105.528 -0.0025208068 -0.00049422934 -0.0075209111 
  172000    2.6542653  0.023671038    28372.625    75569.043 0.0025264297 -0.001139493 -0.0097535372 
  173000    2.6515381  0.023258041    28372.625    75990.243 -0.00013885121 -0.0020363945 -0.013463555 
  174000    2.6490599  0.023235759    28372.625     76487.92 0.0016586682 -0.0019061947 -0.0072191431 
  175000    2.6359655  0.023397685    28372.625    76998.079 0.0019507009 0.0015461835 -0.0065307146 
  176000    2.6431652  0.023956854    28372.625    77478.162 -0.0005768748  0.003058702 -0.0073756342 
  177000    2.6200893  0.024985764    28372.625    77950.236 -0.006600651 0.0071209501 -0.002254892 
  178000    2.6257782   0.02478188    28372.625    78385.981 -0.0079360164 -0.0019023238 -0.00039331969 
  179000    2.6385123  0.023593892    28372.625    78811.104 -0.0057820027 -0.0014716644 -0.0037096937 
  180000    2.6415911  0.023699044    28372.625    79244.179 -0.006535242  0.002978278 -0.0055447699 
  181000    2.6430613  0.023669628    28372.625    79678.365 -0.0040183871 0.00091868491 -0.006370354 
  182000    2.6462125    0.0241821    28372.625    80211.059 0.00090535112 -0.0019810055 -0.0085480303 
  183000     2.643929  0.024183859    28372.625    80722.603 0.0018871331 -0.00097841949 -0.005409366 
  184000    2.6445997  0.023983648    28372.625    81237.309 0.0007648545 0.00029948724 -0.0045315456 
  185000    2.6403041  0.023086516    28372.625    81775.787 0.0026413958 0.00064413218 -0.0065728719 
  186000    2.6406195  0.023230478    28372.625    82260.436 0.0039592696 -0.001637127 -0.0056300184 
  187000    2.6425971  0.023336851    28372.625    82651.621 0.0038988391 0.0019594391 -0.00084825805 
  188000    2.6348362  0.023904164    28372.625    83098.844 0.0045158263 0.0012560232 5.1755671e-05 
  189000     2.618004   0.02508259    28372.625    83572.779 0.00033823766 0.0041128724 -0.00076344853 
  190000    2.6438957  0.023082763    28372.625    84063.501 0.00083720302 -0.002599087 -0.0026708716 
  191000    2.6411921  0.024033145    28372.625    84572.272 0.0019765445 -0.0023367117 -0.0026374316 
  192000    2.6294461   0.02328729    28372.625    85082.081 0.0020297086 -0.00010934786 -0.0013417293 
  193000    2.6579675  0.023671881    28372.625    85637.215 0.0013841496 -0.0042159807 -0.0035710564 
  194000     2.634079  0.023351766    28372.625    86232.654 0.0054154736 -0.0030603983 -0.0064260967 
  195000    2.6356918   0.02389158    28372.625    86857.209 0.0061418355 -0.0021155322  -0.00156441 
  196000    2.6403478  0.024540805    28372.625    87464.628 0.0048813094 -0.0030078257 -0.0021989174 
  197000     2.647545  0.024207821    28372.625    88035.525  0.007168872 -0.0067263251 -0.0040107226 
  198000     2.653066  0.023109464    28372.625    88574.627 0.0039011747 -0.0049392775 -0.0042439305 
  199000    2.6413083    0.0243492    28372.625    89023.847 0.0042231293 -0.0063513863 -0.002160261 
  200000    2.6429415  0.023278215    28372.625    89458.177  0.002515415 -0.0042206068 -0.0032355802 
  201000    2.6430149  0.024059468    28372.625    89875.475 0.0010917322 -0.0011049913 -0.0014950007 
  202000    2.6211187  0.024574062    28372.625     90299.64 -0.0034995086 -5.9947718e-05 -0.0019807182 
  203000    2.6410427  0.023729297    28372.625    90726.481 -0.0013962432 -0.0048084436 -0.0022051618 
  204000    2.6549328  0.023112163    28372.625    91068.299 -0.0031026139 -0.0025366189 -0.00029574047 
  205000    2.6500003  0.024007719    28372.625    91414.758 -0.0050937196 -0.0025700647 -0.0021515276 
  206000    2.6326394  0.024741144    28372.625    91783.863 -0.0048383734 -0.0067789233 -0.00082360305 
  207000     2.646282   0.02336115    28372.625    92201.103 -0.0042695874 -0.0030738546 -0.001198347 
  208000    2.6505228  0.023536914    28372.625    92568.351 -0.0026360886 -0.0034374215 0.0011121618 
  209000    2.6386796  0.024300706    28372.625    92961.815 0.0027084584 -0.0013398099  0.001556795 
  210000    2.6468362  0.023377321    28372.625    93322.857 0.00079203025 -0.0041445392 0.0023730279 
  211000    2.6522894  0.024533414    28372.625    93712.809 0.0011816372 0.00066068636 0.0036212982 
  212000    2.6636366  0.023414455    28372.625    94040.733 0.0033818087 0.00078452422 0.00074270368 
  213000    2.6449488  0.023619845    28372.625    94329.773 0.00091524189 -0.00019920116 2.3182453e-05 
  214000    2.6468132  0.023581938    28372.625    94642.806 0.00015712794  0.001517626 -0.00073346285 
  215000    2.6409414  0.023683806    28372.625    94992.595 0.00052479453 0.0034437499 0.0011815889 
  216000    2.6543736  0.023250933    28372.625    95327.718 0.0015515481 0.0014062152 0.00013470728 
  217000    2.6514693  0.023756798    28372.625    95556.994 0.0021551838 0.0052927308 0.0026111445 
  218000    2.6484391  0.023918147    28372.625    95869.935 -0.0015176205 0.0073588143 0.0015207593 
  219000     2.636651  0.023168085    28372.625    96122.321 -0.0020625035  0.004778049 0.0014002419 
  220000    2.6199632  0.025759198    28372.625    96349.419 -0.0032141001 -0.00040823893 -0.0072034947 
  221000    2.6489154  0.023538537    28372.625    96661.225 0.0040722447 -0.0038971129 -0.0024224003 
  222000    2.6424137  0.023243414    28372.625     97039.73 0.0017715447 -0.0023156872 -0.002317464 
  223000    2.6495988  0.023437417    28372.625    97378.216 0.00097078564 -0.0048081033 3.4562572e-05 
  224000    2.6551736  0.023845753    28372.625    97642.883 0.0017533611 -0.0027835087 0.0010012927 
  225000    2.6472529  0.023137481    28372.625    97844.529 0.0013146571 -0.0012919942 0.0040807321 
  226000    2.6381828    0.0237216    28372.625     98080.55 0.0021839715 -0.00052521911  0.002815524 
  227000    2.6491388   0.02366189    28372.625    98432.717 0.0031792792 8.4413005e-05 0.0026771152 
  228000     2.635134  0.023673154    28372.625    98736.274 0.0014368192 8.6966016e-05 0.0056378916 
  229000    2.6409357  0.023390418    28372.625    98959.156  0.001282256 0.00057049402 0.0040633613 
  230000    2.6434588  0.023390513    28372.625    99179.506 0.0045434672 -0.001059353 0.0019677568 
  231000    2.6358354  0.023877858    28372.625    99487.893 0.0059671161 -0.0014489048 0.0020258274 
  232000    2.6538381  0.023002946    28372.625    99833.052 0.0057826795 -0.0017833979 0.00089518083 
  233000    2.6452505  0.024643163    28372.625    100132.15 0.0045830211 -0.010410588  0.006840709 
  234000     2.642926  0.023585265    28372.625     100407.7  0.001903604 -0.0024083418  0.001739084 
  235000     2.641975   0.02321583    28372.625     100667.6 0.00050937828 -0.0029581425 -0.00070797393 
  236000     2.612096  0.025699072    28372.625    100881.67 0.0030366929 -0.0037707752 -0.0059169006 
  237000    2.6429732  0.023783344    28372.625    101142.01 0.0025938162 -0.001886864 -0.00097384597 
  238000    2.6462797  0.023972018    28372.625    101406.14 0.0039446706 -0.0031246892 -0.0024514207 
  239000      2.64783  0.023363507    28372.625    101685.89 0.0051127668 -0.0021067751 -0.0018704049 
  240000    2.6479847  0.023383951    28372.625    102023.55  0.005339262 -0.0064212991 0.0011817506 
  241000    2.6514285  0.023923912    28372.625    102430.21 0.0026186854 -0.0065331441 -0.00075802766 
  242000    2.6501626  0.024351528    28372.625    102906.56 0.00094217421 -0.0042692997 -0.0043507704 
  243000    2.6427243   0.02413106    28372.625    103322.08 -0.0027629183 -0.0037243131 0.00074581035 
  244000    2.6525456  0.024330803    28372.625    103717.84 0.0031167086 -0.0062392376 -0.00093487103 
  245000    2.6509269  0.023533676    28372.625    104145.28 0.0010730686 -0.0063876201 -0.00032356378 
  246000    2.6552205   0.02359882    28372.625    104543.84 0.00070900145 -0.006790435 0.0024992989 
  247000     2.648483  0.023820222    28372.625    104918.15 -0.00077302047 -0.0093857646 0.0027456266 
  248000    2.6527512   0.02346011    28372.625    105293.19 -0.0013347015 -0.009460322 0.0014571659 
  249000    2.6381625  0.023806285    28372.625    105625.39 -0.00036348089 -0.0080108259 0.0019649916 
  250000    2.6460009  0.023158596    28372.625    105934.21 0.00069994741 -0.0066836232 0.0022330704 
  251000    2.6454248  0.024840457    28372.625    106213.89 -0.0023129492 -0.010014393 0.0014366745 
  252000    2.6412017  0.023747646    28372.625    106494.55 0.0001607803 -0.011254882 -0.0015749936 
  253000    2.6647485  0.023422442    28372.625    106863.68 0.00027743341 -0.010369901 -0.0034248104 
  254000    2.6632292  0.024117581    28372.625    107322.66 0.00087114369 -0.010393757 -0.0048071245 
  255000     2.654921  0.023944862    28372.625    107782.56 -0.00097954299 -0.014447065 -0.0032008791 
  256000    2.6395196  0.023904826    28372.625    108284.63 -0.00085992709 -0.012906391 -0.0031804699 
  257000    2.6583209  0.023442847    28372.625     108785.6 -0.0013793987 -0.010028195 -0.0052980668 
  258000    2.6505333  0.023979162    28372.625    109232.32 0.0013195568 -0.013327119 -0.0067534533 
  259000    2.6445476  0.024021309    28372.625    109640.58 0.00092912686 -0.0087323583 -0.0016775517 
  260000    2.6472307   0.02387719    28372.625    110168.26 0.0026896206 -0.0090870837 -0.0025806247 
  261000    2.6562864  0.023089339    28372.625    110663.03 0.00066801508 -0.007942389 0.0012143287 
  262000    2.6512986  0.023739188    28372.625     111130.9 -0.0016265958 -0.0073386372 0.00099380625 
  263000    2.6530898  0.023424603    28372.625    111502.67 -0.0033234683 -0.0054063247 -0.0009152661 
  264000    2.6375065  0.023447824    28372.625    111766.56 -0.0020918608 -0.0056691773 -0.00053747413 
  265000     2.639551  0.023151029    28372.625    111910.72 -0.00069997355 -0.0059663128 -0.0027081545 
  266000    2.6195715  0.025888512    28372.625    112083.27 0.0048023164 -0.0037662864 0.0011610854 
  267000    2.6331824  0.025153801    28372.625    112238.14 -0.001764376 0.0018171981 0.0013635896 
  268000    2.6429018  0.023361913    28372.625    112408.81 -0.0003796357  0.002463124 -0.0052663647 
  269000    2.6462945  0.024163302    28372.625    112610.72 -0.0010958718 0.0023595793 -0.0038784574 
  270000    2.6549384  0.023430972    28372.625    112736.18 -0.0011693227 0.0021597755 -0.0048767897 
  271000    2.6392572  0.024042928    28372.625    112845.62 8.9500181e-05 0.00086174651 -0.0018516415 
  272000    2.6445499  0.023013373    28372.625    112967.17 -0.001051744 -0.00070552326 -0.0025312915 
  273000      2.63638  0.024639502    28372.625    113101.41 -0.0002931918 -0.002262962 -0.00013972264 
  274000    2.6454187  0.023531635    28372.625    113207.19 -0.0019288517 -0.0023642264 -0.0018625075 
  275000       2.6429   0.02347227    28372.625    113323.62 -0.001272957 -0.0038644965 -0.0017335631 
  276000    2.6257771  0.024660549    28372.625    113404.99 0.0051570825 -0.0018085293 0.0057102676 
  277000    2.6415591  0.024291506    28372.625    113503.33 0.00069976457 -0.0014433416   0.00276509 
  278000    2.6433308  0.023620749    28372.625    113603.55 -0.00030396912 -0.0026338284 0.0035077095 
  279000    2.6475273  0.023651263    28372.625    113726.13 0.0012578033 -0.0059057522 0.0025648773 
  280000    2.6503342  0.023860685    28372.625    113778.04 -0.0015908911 -0.0050367084  0.004135226 
  281000    2.6503574  0.023274521    28372.625     113911.9 -0.0022770743 -0.0028041193   0.00741086 
  282000     2.658601  0.023326192    28372.625    114038.17 -0.0024645574 -0.0033667761 0.0064152324 
  283000    2.6422436  0.023254705    28372.625     114176.1 -0.00057113584 -0.0014244224 0.0054212417 
  284000    2.6431884  0.024102237    28372.625    114399.17 -0.0011164474 -0.0018112049 0.0068987206 
  285000    2.6516832  0.023607588    28372.625    114675.86 -0.0035168104 -0.0030614191 0.0054543007 
  286000    2.6562783  0.023375466    28372.625    114977.81 -0.0053173351 -0.00054077098 0.0042632916 
  287000     2.642375  0.024867788    28372.625    115252.99 -0.0036069133 0.00047216025 0.0075325574 
  288000    2.6344432  0.024407867    28372.625    115563.37 -0.0016425858 -0.0017255642  0.001773846 
  289000    2.6493313  0.023481792    28372.625    116021.09 -0.0055239212 -0.0012156218 0.0066316619 
  290000    2.6412895  0.023691584    28372.625    116571.74 -0.0039755372 -8.2865947e-05  0.007143126 
  291000    2.6383284   0.02325269    28372.625    117091.42 -0.0023967609 -0.00095052854 0.0065107007 
  292000    2.6366276  0.023169243    28372.625    117626.83 -0.0024648906 0.0019946677 0.0043081296 
  293000    2.6508729  0.023310776    28372.625    118273.42 -0.0032255408 0.0026793497 0.0020188372 
  294000    2.6530086  0.023502642    28372.625    118949.73 -0.0051177814 0.0029594256 0.0048387568 
  295000    2.6500442   0.02407049    28372.625    119584.32 -0.0056155982 0.0035581256 0.0030163488 
  296000    2.6442409  0.023904845    28372.625    120097.53 -0.0011609833 0.0039453352 0.0055554313 
  297000    2.6223455  0.025100723    28372.625    120565.52 -0.00080190955 0.0029471851 0.0030014415 
  298000    2.6482634  0.023220862    28372.625    120963.41 -0.0041294876 0.0027526054 0.0059918979 
  299000    2.6455089   0.02370902    28372.625     121385.7 -0.002175531 -0.0017777086 0.0079143622 
  300000    2.6465866  0.024081988    28372.625    121845.12 -0.0060345442 0.0020041813 0.0077097146 
  301000    2.6423087  0.024859827    28372.625    122286.56 -0.005155862 0.00015153491  0.001024975 
  302000    2.6522706  0.024241561    28372.625    122780.18 -0.0058488774 -4.5990915e-05 -5.4954805e-06 
  303000    2.6583434  0.023879607    28372.625    123334.32 -0.0059006939 -0.00010675375 0.0011635246 
  304000    2.6428841  0.024168227    28372.625    123979.56 -0.0059315498 -0.0051515385 -0.00062067867 
  305000    2.6486414  0.023669629    28372.625    124624.05 -0.0051780179 -0.0046368467 0.0014368175 
  306000    2.6509881  0.024543552    28372.625    125232.25 -0.0042214884 -0.0065114381 -0.00040397698 
  307000    2.6607551  0.023187022    28372.625    125734.77 -0.0077749644 -0.0044416956 0.00061068225 
  308000    2.6429657  0.023838281    28372.625     126152.7 -0.004449406 -0.0027333685 -0.00014807453 
  309000    2.6386713  0.023721743    28372.625    126555.37 -0.0036098866 -0.0019694983 0.0033360455 
  310000    2.6531825   0.02364172    28372.625    126940.14 -0.0041231426 0.00060055648 0.0013251053 
  311000    2.6395877   0.02367867    28372.625     127448.5 -0.0069084502 0.00038010577 0.0027822649 
  312000    2.6480811  0.023155492    28372.625    127945.07 -0.0046228178 0.0016865019 0.0058448508 
  313000    2.6601681  0.023364668    28372.625    128421.33 -0.0046792999 0.0029174815 0.0053396594 
  314000    2.6383996    0.0232891    28372.625    128867.49 -0.0059009281  0.004303946 0.0040545337 
  315000    2.6427879  0.023767459    28372.625    129245.01 -0.0086977388 -8.0378825e-05 0.0051129451 
  316000    2.6438244  0.023146645    28372.625    129631.82 -0.0081312336 0.00051666517 0.0039565827 
  317000    2.6500022  0.023755976    28372.625    129963.49  -0.00959783 0.0034891982 0.0022267054 
  318000    2.6440991    0.0234296    28372.625       130260 -0.0076154939 0.0016214656 0.0036702432 
  319000    2.6285965   0.02471683    28372.625    130584.36 -0.0084747272 -0.00099288561 0.0032137318 
  320000    2.6382811  0.023347801    28372.625    130777.79 -0.0083070883 0.00058269921 -0.00038874096 
  321000    2.6471162  0.023810961    28372.625    130966.61 -0.0087287542 -0.0013557984 0.0023257156 
  322000    2.6397398  0.023292939    28372.625    131121.56 -0.0022125945 0.0022207625 -0.00086285626 
  323000    2.6423572  0.024063831    28372.625    131201.46 0.00023938953 0.0025343061 -0.0022368506 
  324000    2.6566893  0.023739985    28372.625    131397.38 -0.0014856892 0.0024333736 -0.003450001 
  325000    2.6444194   0.02379233    28372.625    131634.73 -0.00076615446 0.0028737452 -0.0053034168 
  326000    2.6571925  0.023637093    28372.625    131840.45 0.0010465423  0.004430886 -0.0076869457 
  327000    2.6412078  0.023294118    28372.625    132095.86 0.0024801053 0.0054158704 -0.0066046899 
  328000    2.6388042   0.02390721    28372.625    132389.75 0.0031997332 0.0068800474 -0.0010110021 
  329000    2.6509124  0.024007714    28372.625    132722.71 0.0029094522  0.002346249 -0.001657108 
  330000    2.6342242  0.024483067    28372.625    133159.88 0.0024139448 0.0019748131 -0.0079241992 
  331000    2.6433793  0.024305624    28372.625    133567.59 -0.0023275014 -0.0017550015 -0.0023596277 
  332000    2.6464908  0.024040307    28372.625    134025.45 -0.0021257285 -0.0030915865 -0.0072526175 
  333000    2.6515218  0.023715211    28372.625    134573.56 -0.0062026615 -0.002071825 -0.0077626289 
  334000    2.6414396  0.023482047    28372.625    135208.65 -0.0052605718 -0.003396761 -0.0059332236 
  335000    2.6497199  0.024050136    28372.625    135768.21 -0.005347404 -0.00094375142 -0.0059088035 
  336000    2.6548659  0.023202909    28372.625    136275.13 -0.0053583339  0.001081779 -0.0039280031 
  337000    2.6502406  0.023130891    28372.625    136888.79 -0.0044528318 0.0022050521 -0.0051627254 
  338000    2.6517104  0.023623957    28372.625       137483 -0.0007603114 0.0034605893 -0.0062942646 
  339000    2.6422703  0.023336894    28372.625    138020.76 0.0017124612 0.0042335178 -0.0050128928 
  340000    2.6260096  0.024517642    28372.625    138538.72 -0.00096592599 0.0040010477 -0.001523571 
  341000    2.6501057  0.023795002    28372.625    139051.11 0.0034710137 0.0049563335 -0.0012265611 
  342000    2.6415159  0.023831958    28372.625    139693.32 0.0024080401 0.0023807741 -0.0015845377 
  343000    2.6499612  0.023059509    28372.625    140381.02 0.0045187275 0.0036781608 -0.0012153748 
  344000    2.6540727  0.024539171    28372.625    140950.13 0.0044413857 0.0055541679 -0.0036524076 
  345000    2.6377637  0.023382473    28372.625    141497.16 0.0033953359 0.0044520015 -0.00049053643 
  346000     2.651126  0.024021461    28372.625    142023.94 0.0053867478 0.0034094268 -0.0025493746 
  347000    2.6457341  0.023281343    28372.625    142529.97 0.0036679736 0.00064935157 -0.0049483393 
  348000    2.6341176  0.024034976    28372.625    143003.97 0.0013169302 0.00098022087 -0.0043405488 
  349000    2.6536248    0.0238227    28372.625    143418.21 -0.0029954796 0.0036942487 -0.0043469258 
  350000    2.6527701  0.024207031    28372.625    143698.52 0.00025256253 0.00084975461 -0.0056140323 
  351000    2.6497144  0.023257128    28372.625    143953.93 0.00090240527 0.00081078427 -0.0031913367 
  352000     2.636504  0.023566977    28372.625    144253.06 0.0032144805 0.0023871769 -0.0014698896 
  353000    2.6501239  0.023759315    28372.625    144556.32 0.0042307239 0.0021450024 -0.00093032834 
  354000    2.6479849  0.023551025    28372.625    144945.58  0.003792909 0.0020816348 -0.0022448871 
  355000    2.6447769  0.023526241    28372.625    145284.89  0.004649241 0.00090211611 -0.0037851484 
  356000    2.6465627  0.023349399    28372.625    145684.94  0.004434043 -0.0021434542 -0.0038537847 
  357000    2.6519811  0.023957505    28372.625    146048.63 -0.00040423312 -1.7624439e-05 -0.0024993866 
  358000    2.6568188  0.023443882    28372.625    146451.62 0.0032521801 0.0021266247 -0.0077764531 
  359000      2.64691  0.023585906    28372.625    146931.79 -5.1409234e-05 0.0033882478 -0.0059391094 
  360000     2.645803  0.023537144    28372.625    147455.12 -0.0022912355 0.0024769807 -0.0063227349 
  361000    2.6491679  0.023333716    28372.625    147899.22 -0.00091661307 -2.2414534e-05 -0.0066873691 
  362000    2.6476431  0.023534806    28372.625    148297.87 -0.00098231407 0.00085011927 -0.0058375412 
  363000    2.6491223  0.023503924    28372.625     148644.4 -0.0026244183 -0.00080185506 -0.0067050025 
  364000     2.642178  0.023285762    28372.625    148972.65 -0.0041574621 0.00037189784 -0.0072917293 
  365000    2.6457319  0.025196214    28372.625    149445.54 -0.0061455677 0.0031501851 -0.0051012876 
  366000    2.6462774  0.023676769    28372.625    149992.31 -0.0069380226  0.001423839 -0.0031001922 
  367000    2.6377036  0.023315214    28372.625    150605.58 -0.0055917084 -0.00017256672 -0.0044383537 
  368000    2.6525547  0.023018115    28372.625    151245.01 -0.005201678 0.00046189334 -0.0026804451 
  369000    2.6448564  0.023406066    28372.625    151868.04 -0.0042604033 0.0020665533 -0.0020098253 
  370000    2.6432871  0.024009356    28372.625    152396.75 -0.0043245482 0.00093608912 0.00016973538 
  371000    2.6549623  0.024116745    28372.625    152751.96 -0.0035098948 0.0010300961 -0.0001007463 
  372000    2.6442887  0.023893358    28372.625    153013.18 -0.0020156197 0.0027612633 0.00038091456 
  373000    2.6388783  0.024056311    28372.625    153205.74 -0.0012677688 0.0012700623 -0.0033442382 
  374000    2.6451063  0.023570437    28372.625    153273.37 -0.0021567543 0.0020192419 -0.0039190803 
  375000    2.6400922  0.023184951    28372.625    153331.08 -0.0023095046 0.0010455756 -0.0042132776 
  376000    2.6441908  0.023067046    28372.625    153370.39 -0.00029991303 -0.0018310101 -0.0070232374 
  377000    2.6392445  0.023958093    28372.625    153415.75 -0.0036195554 0.0010301017 -0.0042438416 
  378000     2.650906  0.023410957    28372.625    153583.32 0.0030523508 0.0022846419 -0.00086549764 
  379000    2.6306209  0.024395109    28372.625    153904.34 0.0026391369 0.0086252282 -0.0040979857 
  380000    2.6470767  0.023775355    28372.625    154354.16 0.0019192208  0.002850188 -0.0064890443 
  381000    2.6479884  0.023304723    28372.625    154975.83 0.00031766362 -0.0015391764 -0.0040643156 
  382000    2.6251611  0.024515379    28372.625    155597.79 0.00016374255 0.00087709522 -0.0010804696 
  383000    2.6521281  0.023525462    28372.625    156289.65 0.00080020984 0.0034614042 -0.0026248741 
  384000    2.6634869  0.023980632    28372.625    157023.71 -1.1212648e-05 0.0039804492 -0.002896402 
  385000    2.6592954  0.023375577    28372.625    157761.55 0.00066338397 0.0022138324 -0.0027307587 
  386000    2.6412263  0.023307601    28372.625    158501.27 0.00081437507 0.00066394438 -9.430978e-05 
  387000    2.6525189  0.023530402    28372.625    159141.13 0.00042239424 -0.0035536757 0.0019340389 
  388000    2.6521346  0.023329749    28372.625       159726 0.00092680979 0.00081950057 0.0038618005 
  389000    2.6509455   0.02321548    28372.625    160287.04 6.6988959e-05 2.7740707e-05  0.004239954 
  390000    2.6478091  0.023264382    28372.625    160875.27 0.00072783872 -0.0014825797 0.0049498579 
  391000    2.6501744  0.023483434    28372.625    161526.45 -0.0016491868 -0.0020501225 0.0028239635 
  392000    2.6376074  0.023338268    28372.625    162089.65 -0.0011160522 -0.0024327396 0.0026018741 
  393000    2.6263871  0.024638598    28372.625    162593.42 -0.0025757542 -0.001238317 0.00056103296 
  394000    2.6510427  0.023531581    28372.625    163182.08 0.00053317347 0.0015448747  0.004865725 
  395000    2.6432477  0.024018369    28372.625    163844.39 0.0030584874 0.0040056845 0.0034704883 
  396000    2.6414084  0.023960326    28372.625    164622.47  0.001473535 0.0046441082  0.005409335 
  397000    2.6420274  0.023425759    28372.625    165300.61 0.00084192792 0.0044591551 0.0070390101 
  398000    2.6363413   0.02572478    28372.625    165928.26 -0.0033643671 0.0083883587  0.013156432 
  399000    2.6478299  0.023754552    28372.625    166557.82 0.0021405667  0.010320952  0.013129216 
  400000     2.645208   0.02375039    28372.625    167169.65 0.0006603916 0.0063546007 0.0081241219 
  401000    2.6585204  0.023139926    28372.625    167775.88 -0.00059985836 0.0076576974 0.0056716146 
  402000    2.6500703  0.023344126    28372.625    168370.14 0.00027182897 0.0078438066 0.0030423579 
  403000    2.6572724  0.023389991    28372.625    168920.07 -0.0017256194 0.0070834013 0.0035979124 
  404000    2.6399184  0.023929937    28372.625    169361.72 -0.0023665288 0.0061226835 0.0030488382 
  405000     2.627214  0.025242674    28372.625    169833.73 -0.00027087161 0.0046245335 0.0037411124 
  406000    2.6405454  0.023907298    28372.625    170349.49 -0.0010779439 0.0045345402 0.0059362291 
  407000     2.644574  0.023362634    28372.625    170868.83 -0.00053228156 0.0055100034 0.0063027489 
  408000     2.644168  0.023880503    28372.625    171402.95 -0.0037009887 0.0042927948 0.0067740331 
  409000    2.6462935  0.023487514    28372.625    171817.61 -0.0047298154 0.0029955385 0.0068187848 
  410000    2.6359094  0.023991258    28372.625    172102.61 -0.0092542204 0.0051904751 0.0048610702 
  411000     2.636144  0.024068337    28372.625    172399.43 -0.0044481618 0.0063434667 0.0007827603 
  412000    2.6465372  0.024348935    28372.625    172687.58 -0.0079467734 0.0086972566 0.0067846392 
  413000    2.6394638  0.024367386    28372.625    173021.39 -0.0057607913 0.0063242645 0.0036554648 
  414000    2.6453862  0.024335877    28372.625    173440.45 -0.0090435112 0.0033905247 0.0046277566 
  415000     2.617649  0.024784191    28372.625    173828.52 -0.009606192 0.0042667888 0.0045806737 
  416000    2.6316549  0.023583801    28372.625    174178.43 -0.0063227753 -0.0010781854  0.004147396 
  417000    2.6489205  0.025224531    28372.625    174436.65 -0.0055853452 0.0039131797 0.0025413078 
  418000    2.6373841  0.023661192    28372.625     174585.3 -0.00049151165 0.0029992526 0.00017656056 
  419000    2.6570854  0.023471511    28372.625    174769.22 -0.0016756063 0.0049684314 -0.0014957475 
  420000    2.6512446  0.023630812    28372.625    175030.14 -0.0012434882 3.4138454e-05 -0.0016705348 
  421000    2.6472721  0.023563278    28372.625    175277.59 -0.00087870948  0.002485482 -0.00026219696 
  422000    2.6594357  0.023675412    28372.625    175509.73 0.0012787406 0.0023464187 -0.004627586 
  423000     2.655195  0.024010572    28372.625     175778.2 -0.0055895403 0.0036773247 -0.00068746803 
  424000    2.6374073  0.024909904    28372.625     176123.2 -0.0015966746 0.0026807066 0.0032560849 
  425000    2.6497577  0.023356535    28372.625    176511.85 0.00042413796 0.00014421524 -0.0013017423 
  426000    2.6523754  0.023846451    28372.625    176911.31 -3.1444313e-05 0.0011758717 -0.0034847269 
  427000     2.646287  0.024380996    28372.625    177358.34 0.00092737862 -0.00017047838 -0.0016840626 
  428000    2.6428851  0.024682165    28372.625    177816.59 -0.00096740236 -0.0016072695 -0.00092601006 
  429000    2.6355447  0.024640091    28372.625     178267.3 -0.00053303235 -0.00094979993 -0.0039124601 
  430000    2.6439913   0.02360636    28372.625    178608.87 -0.00046407637 -0.0008093129 -0.0070601242 
  431000    2.6384146  0.023177216    28372.625    178932.63 0.0019991114 0.00076334536 -0.0057971007 
  432000    2.6452244  0.024607478    28372.625    179295.07 0.0040079189 0.0018317791   -0.0042502 
  433000     2.653106  0.025496731    28372.625    179783.16 -0.00024087643 -0.00010220328 -0.0061855835 
  434000    2.6475097   0.02359408    28372.625    180183.65 0.0018650644 0.00034941355 -0.004789814 
  435000    2.6321246  0.023337128    28372.625    180509.83 0.0020316917 0.0020398542 -0.006745876 
  436000    2.6401558  0.023236486    28372.625    180887.41 0.0031925041 0.0032342235 -0.0056852316 
  437000     2.638274  0.023120929    28372.625    181312.86  0.004395584 0.0047675221 -0.0037050995 
  438000     2.642686  0.024167591    28372.625    181790.63 0.0058871107 0.0035856399 -0.0037404263 
  439000    2.6198169  0.024974045    28372.625    182206.23 0.0070178722 0.0040139011 -0.00010966977 
  440000    2.6454225  0.023500925    28372.625    182584.04 0.0033405157 0.00024695881 -8.9491782e-05 
  441000    2.6451237  0.023345282    28372.625    182975.53 0.0054309842 0.00076729711 -0.0022887275 
  442000    2.6500723  0.023730065    28372.625     183355.4  0.006044089 0.0011349698 -0.0011820186 
  443000    2.6458019  0.023237474    28372.625     183748.8 0.0044900946 0.0011828965 -0.0001265412 
  444000    2.6427165  0.023334991    28372.625    184142.67 0.0026645881 9.3289104e-06 -0.0012026181 
  445000    2.6579968   0.02348834    28372.625    184525.07 -0.0012238346  0.001661071 0.00024209623 
  446000    2.6487487  0.023212663    28372.625    184927.05 -0.00087954506 0.00030872382 0.0016218696 
  447000    2.6287429  0.024149739    28372.625    185434.14 0.0039646253 0.0059616326 0.0025928143 
  448000    2.6502627  0.023242072    28372.625    185995.33 0.00066543099 -0.00019509892 0.0020459874 
  449000    2.6520873  0.023344319    28372.625    186582.94 0.0015831953 -0.00054269844 0.0010389498 
  450000    2.6414055  0.023347427    28372.625    187132.07 0.0016613217 0.0019014243 0.0025707948 
  451000      2.62955  0.024176996    28372.625    187729.97 0.0016038405 -0.0046033688 0.0033972017 
  452000    2.6448822  0.023813054    28372.625    188367.06 0.0019739089 -0.0018108169 0.0021641592 
  453000    2.6398167  0.023228668    28372.625    188890.44 0.0011919786 0.0012524214  0.001161384 
  454000    2.6404025  0.023124272    28372.625    189347.05 0.0051986964 0.0017967274 0.00034065132 
  455000    2.6536764   0.02392776    28372.625    189807.82 0.0058384448 -0.00070843732 0.00050861941 
  456000    2.6373814  0.023350482    28372.625    190293.05 0.0034232704 0.0015472264 -0.0015846649 
  457000    2.6457023  0.023812113    28372.625    190727.24 0.0013834802 0.00027895362 -0.0046879264 
  458000    2.6456033  0.024114908    28372.625    191114.72 -0.0012016555 0.0019035811 -0.0073825052 
  459000    2.6567962  0.023681631    28372.625    191336.15 0.00043688019 0.0019752902 -0.0057679896 
  460000    2.6514814  0.023368801    28372.625    191528.08 -0.0002070629 0.0013365587 -0.0041465914 
  461000       2.6449  0.023618258    28372.625    191727.48 0.0016669871 -0.001105153 -0.0053185776 
  462000    2.6608982  0.023341744    28372.625    191951.13 0.0023846331 -0.002759484 -0.0060666007 
  463000    2.6480565  0.023325842    28372.625    192210.91 0.0040470886 -0.00098452031 -0.0047623057 
  464000    2.6259752  0.024651465    28372.625    192424.19 0.0058713945 0.0042154411 -0.0078901954 
  465000    2.6397048  0.023735201    28372.625    192689.03 0.0021870275 -0.00045208413 -0.011670522 
  466000    2.6162221  0.025526239    28372.625    192948.44 -0.0014885848  0.001564386 -0.0071306364 
  467000    2.6463425   0.02331396    28372.625    193308.26 -0.00011707464 0.0020615008 -0.0053769452 
  468000    2.6482768  0.023714849    28372.625     193667.6 -0.00019827336 0.0019247822 -0.0043239417 
  469000    2.6431474  0.023448775    28372.625     193968.1 0.00054311695 0.0012095927 -0.0028478989 
  470000    2.6573155  0.024388902    28372.625     194314.6 0.0016550857 0.00018375647 -0.0021000846 
  471000    2.6535891  0.023462364    28372.625    194670.86  0.002030091 -0.00034431816 -0.00099785514 
  472000    2.6496038  0.023437354    28372.625    194999.81 0.0028991074 -6.4860843e-05 0.0015347062 
  473000    2.6408029  0.024123485    28372.625    195280.72 -0.00024558552 -0.0013927889 -0.00065091591 
  474000    2.6462117   0.02341482    28372.625    195660.84 0.00038498471 -0.0019446116 0.0017275001 
  475000    2.6363283  0.024821953    28372.625    196118.87 0.0054247364 -0.00055167474 0.0037157423 
  476000    2.6412416  0.024232306    28372.625    196533.43 0.0050324872 -0.0012237303 0.0058240338 
  477000    2.6502337  0.023895953    28372.625    196944.96  0.010207488 -0.0052668461  0.007305426 
  478000    2.6419892  0.023834886    28372.625    197374.21 0.0052434062 -0.0066441076 0.0036982643 
  479000    2.6568865  0.023323762    28372.625    197734.72  0.008119915 -0.0077976835 -0.00050399565 
  480000    2.6293747  0.025413824    28372.625    198186.69 0.0090222474 -0.0068667876 -0.0026732739 
  481000    2.6428568  0.024460634    28372.625    198676.86  0.010144852 -0.0037631564 -0.0010135893 
  482000     2.636514  0.023390074    28372.625    199176.31 0.0092500554 -0.002046358 -0.003131319 
  483000    2.6576117  0.023868343    28372.625    199686.96 0.0077817879 -0.0024376823 -0.0025801175 
  484000     2.666921   0.02340367    28372.625    200135.95 0.0072611018 -0.0037325821 8.7820278e-05 
  485000    2.6617448  0.023445479    28372.625    200562.46 0.0089926493 -0.0025724415 -0.00072205335 
  486000    2.6431877  0.023538555    28372.625    201062.51 0.0087448325 -0.0014599331 0.0019113075 
  487000    2.6549104  0.023121945    28372.625    201528.59 0.0058642836  -0.00234451 0.00081634308 
  488000    2.6152862  0.025982524    28372.625    201644.82 0.00022184631 -0.005527124 -0.0012790156 
  489000    2.6465515  0.024045822    28372.625    201786.41 0.0022451394 -0.0018524612 -0.00041215982 
  490000    2.6384616  0.024194272    28372.625    201958.84 0.00082730923 0.00013773108 0.00037493113 
  491000    2.6560062  0.023808727    28372.625    202225.32 1.6292916e-05 -0.0024114361 0.00035386914 
  492000    2.6424401  0.023382399    28372.625    202543.76 -0.00013031206 0.0015562304 -0.00032299972 
  493000    2.6332934   0.02408124    28372.625    202793.52 -0.00060986664 -0.00048581172 -0.00089626113 
  494000    2.6470819  0.023887325    28372.625    203064.25 -0.0010434116 0.0003948116 -0.00071427549 
  495000    2.6427684  0.023597757    28372.625    203430.14 -0.0012932026 4.6748115e-05 -0.00053897406 
  496000    2.6512816  0.023149647    28372.625    203931.35 -0.0006855921 0.00039253499  0.001471033 
  497000    2.6462053  0.023852066    28372.625    204437.98 -0.00094036846 -8.4916229e-05 0.0033021346 
  498000    2.6502452  0.023378319    28372.625    204964.93 -0.0036515384 -0.0038294829 0.0012643156 
  499000    2.6453544  0.024008659    28372.625    205584.42 0.00030214308 -0.0025861207 -0.0016084295 
  500000    2.6522238  0.023884584    28372.625    206284.35 -0.0011966325 -0.0051670865 0.0017664277 
  501000    2.6437312  0.023178047    28372.625    207028.22 -0.0010044624 -0.0036511592 0.0032070125 
  502000     2.652711  0.023570277    28372.625    207685.15 -0.0028248399 -0.0002527125 0.0045078506 
  503000    2.6512041  0.023465715    28372.625    208122.55 -0.0034477612 0.00062114907 0.0031838705 
  504000    2.6434916  0.023672793    28372.625    208667.84 -0.0034139881 0.0032991676 0.0011794058 
  505000    2.6461127  0.023382899    28372.625       209141 -0.0014990165 0.0012906553 0.0027305925 
  506000    2.6373618  0.023517263    28372.625    209542.01 -0.00077566647 0.0022289649 0.0056027055 
  507000    2.6389137  0.023964313    28372.625    209837.02  0.003125176 0.0066426898 0.0085536715 
  508000    2.6383325  0.023603071    28372.625    210036.05 0.0038172342 0.0045744348 0.0064101667 
  509000    2.6414741  0.023378526    28372.625    210245.19 0.0034525759 0.0048920031 0.0049348379 
  510000    2.6455259  0.023389694    28372.625    210562.78 0.0064821779 0.0045203196 0.0038747159 
  511000    2.6444372  0.023399985    28372.625    211006.63 0.0016795425 0.0033216359 0.0018651399 
  512000     2.637652  0.023304589    28372.625    211514.92 -0.0028205505 0.0026321976 0.0021399931 
  513000    2.6329442  0.023603069    28372.625    212133.42 -0.0021503682 0.0020110308 0.0043449795 
  514000    2.6487254  0.023489454    28372.625    212828.68 -0.0021695799 0.0012902323 0.0056882389 
  515000    2.6485598  0.023744244    28372.625       213443 0.00025090748 0.0019797266 0.0038422275 
  516000    2.6350622  0.024027337    28372.625    214046.92 0.00097913969 0.0032039089 0.0040172885 
  517000    2.6406215  0.023470397    28372.625    214624.56 0.0016168488 0.0027169207 0.0026884497 
  518000    2.6395134  0.024381119    28372.625    214977.87 0.0011932486 0.0011636059 0.0017270739 
  519000    2.6407839  0.024615187    28372.625    215244.92 0.0027150976  0.004435986 0.0042228132 
  520000    2.6528026   0.02355827    28372.625    215490.44  0.002657986 0.0052560029 0.0018558299 
  521000    2.6465684  0.023693849    28372.625    215886.07 0.0035450103  0.002551586 -0.00079058724 
  522000    2.6571715  0.023306938    28372.625    216312.37 0.0053407065 0.0027180133 0.0005356195 
  523000    2.6432724  0.023960274    28372.625    216747.01  0.001834584  0.004773252 -0.00050488141 
  524000    2.6521918  0.023497079    28372.625     217197.5 0.0030178528 0.0045877708 0.0016246882 
  525000    2.6471202   0.02373121    28372.625    217656.31 -0.0017131406 0.0039121042 0.0034619409 
  526000    2.6444209  0.023218076    28372.625     218128.3 -0.00018680984 0.0025167463  0.000685145 
  527000    2.6494515  0.023261172    28372.625    218651.77 0.00016241012  0.003041034 0.00051582223 
  528000    2.6544625  0.023431832    28372.625    219173.37 -0.0015177323 0.00010390133 0.00077919156 
  529000    2.6513978  0.023077276    28372.625    219667.13 -0.00046675722 0.0026876796 0.00010849044 
  530000     2.651753  0.023136692    28372.625    220222.77 0.00024286372 0.0042266104 -0.0017900528 
  531000    2.6476041  0.023108597    28372.625    220798.37 -0.0010358556  0.001377663 -0.0041791581 
  532000    2.6712332  0.023237174    28372.625    221349.15 -0.0011370113 0.0014609073 -0.0041053282 
  533000    2.6514641  0.023582352    28372.625    221987.46 0.00032470694 -0.00016171565 -0.0054763163 
  534000    2.6582781  0.023498652    28372.625       222579 0.0010222004 -8.8546517e-05 -0.0035131182 
  535000    2.6493896  0.023132309    28372.625    223182.53 0.0014306281 0.0020146605 -0.0021383225 
  536000    2.6452621  0.023726402    28372.625     223693.2 0.0016869266  0.003272617 -6.6252836e-05 
  537000    2.6416475  0.023993542    28372.625    224291.99 0.0028761705 0.0034869056 -0.0022564455 
  538000    2.6360563  0.023543823    28372.625    224992.85 0.0013833886 0.0029479147 -0.0037248553 
  539000    2.6487328  0.023265536    28372.625    225626.54 0.0015222355 0.0043944869 -0.0038924659 
  540000    2.6466272  0.023180987    28372.625    226308.19 -8.7642276e-05 0.0036884718 -0.0048919021 
  541000    2.6466503  0.023568153    28372.625    226979.87 0.00043459115 0.0026837292 -0.0044941542 
  542000    2.6355046  0.023494368    28372.625    227581.75 -0.00072479083 -0.00035609197 -0.0042006546 
  543000    2.6388268  0.023321455    28372.625    228201.88 -0.002065487 0.0033983839 -0.0059345201 
  544000    2.6391524  0.023290058    28372.625    228810.69 -0.0036490166 -0.00058593816 -0.010440091 
  545000    2.6490428  0.023413849    28372.625    229351.31 -0.0039738796 -0.0013488976 -0.012690813 
  546000    2.6439185  0.023527942    28372.625    229849.56 -0.0063739907 0.0027819164 -0.011803064 
  547000    2.6454519  0.023131804    28372.625    230233.57 -0.0061535771 0.0010112857 -0.012061027 
  548000    2.6446299  0.023766373    28372.625    230561.46 -0.0042006122 -0.00036401463 -0.0097949893 
  549000    2.6558654  0.023851415    28372.625    230838.17 -0.004325664 -0.0037415894 -0.0064071569 
  550000     2.650937  0.023156546    28372.625    231117.51 -0.0040354171 -0.0018171147 -0.0039008342 
  551000    2.6590867  0.023851921    28372.625    231452.97 -0.005613228 -0.0041823685 -0.0039766848 
  552000    2.6460776  0.023920749    28372.625    231585.48 -0.0051369016 -0.0039809298 -0.0021538709 
  553000    2.6468843  0.023972337    28372.625    231657.54 -0.0034167475 -0.00020458558 -0.0034184815 
  554000    2.6439988  0.023863346    28372.625    231797.68 0.0010679094 -0.0015062108 -0.004207039 
  555000    2.6510026  0.023311914    28372.625    231935.43 0.0010215488 -0.003512942 -0.0059704774 
  556000    2.6548421  0.023328644    28372.625    232163.55 0.0010359821 -0.0031283113 -0.0059718388 
  557000    2.6500264  0.024088071    28372.625    232548.85 0.0031867892 7.8222453e-05 -0.0056662645 
  558000    2.6531389  0.023595498    28372.625    233028.35 0.0059037975 0.00010170106 -0.0043357722 
  559000    2.6390017  0.023815674    28372.625    233429.91 0.0061833241 7.9668202e-05 -0.0043055811 
  560000    2.6550055  0.024972362    28372.625    233757.02 0.0011820737 0.0024382473 -0.0064017415 
  561000    2.6431943  0.023709635    28372.625       234004 -7.9594484e-06 0.0035244408 -0.0079772054 
  562000    2.6385087   0.02325386    28372.625    234145.27 -0.0012548503 0.0016094988 -0.010176482 
  563000    2.6301365  0.023675704    28372.625    234245.91 0.00075937268 0.0021600618 -0.0094621267 
  564000     2.653934  0.023417865    28372.625    234474.46 0.00029604069 0.0023709462 -0.0081648986 
  565000    2.6367554   0.02325079    28372.625    234677.47 0.00057157671 0.0006471362 -0.0055720593 
  566000    2.6399193  0.023359039    28372.625    234889.43  0.000177253 -0.00023213693 -0.0034774738 
  567000    2.6340328  0.023168306    28372.625    235075.45 -0.0033004768 -0.00022091612 -0.0023288347 
  568000     2.649659  0.023691101    28372.625    235312.42 -0.0059943521 -0.00066309153  -0.00190161 
  569000    2.6385653  0.023337962    28372.625    235419.23 -0.0053685179 -0.0012781264 -0.0017269336 
  570000    2.6406335  0.023622822    28372.625    235513.43 -0.0056397415 -0.00034272247 -0.0017929012 
  571000    2.6454247   0.02343664    28372.625    235670.35 -0.0056629996 0.0028735644 -0.0056241377 
  572000    2.6458545  0.023217807    28372.625    235844.27 -0.0029074099 0.0032844903 -0.0043948931 
  573000    2.6362124  0.024144543    28372.625    236012.13 -0.0049178618 -0.00033878099 -0.0014062333 
  574000    2.6458646   0.02359343    28372.625    236186.56 -0.0021057525 -0.00038682134 -0.0019739724 
  575000    2.6472408  0.023398804    28372.625    236507.79 -0.0010463967 0.00067953065 -0.0019239098 
  576000    2.6259729  0.024427566    28372.625    236914.53 0.0025227192 0.0019907999 -0.0022937611 
  577000    2.6452898  0.023982837    28372.625    237262.73 -0.0013670059 0.00015204443 -0.0017197955 
  578000    2.6501556  0.023265256    28372.625    237617.11 -0.001811391 0.0042574099 -0.001041088 
  579000    2.6433254   0.02348453    28372.625    238047.66 0.0011090603 0.0078719213 -0.00075037836 
  580000    2.6365895  0.023246137    28372.625    238370.18 0.0024983414 0.0056499529 -0.0019347414 
  581000    2.6311405   0.02457534    28372.625    238716.25 0.0025772924 0.0037724541 -0.0010076168 
  582000    2.6269171  0.025189916    28372.625    239017.58  0.012332001 -0.00095845996 -0.0010222103 
  583000    2.6453514  0.023225723    28372.625    239285.64 0.0021771602 0.0030108952 -0.0027712991 
  584000    2.6336974  0.023651342    28372.625    239632.29 -0.00066706194 0.0030533151 -0.0048114638 
  585000    2.6496072  0.023413959    28372.625    239939.33 -0.001075466 0.0033217166 -0.0032396517 
  586000     2.640066  0.023558403    28372.625     240136.7  0.002645795 0.00088195011 -0.0029868917 
  587000    2.6453181  0.023375025    28372.625    240323.63 -0.0019372428 0.00043641851 -0.0048940699 
  588000    2.6476373  0.023169405    28372.625    240587.15  0.001326431 0.0026926553 -0.006393387 
  589000    2.6464713  0.023466839    28372.625    240775.61 0.00095314651 0.0033800888  -0.00522387 
  590000    2.6383027  0.023952996    28372.625    241064.47 -0.00051505145 0.0033355565 -0.0022601751 
  591000    2.6231282  0.024449259    28372.625    241400.06 -0.0017767742 0.0012081824 -0.0016628792 
  592000    2.6483525  0.023621328    28372.625     241617.5 -0.00096839935 0.0013593706 -0.0018057871 
  593000    2.6374977  0.023404789    28372.625    241826.68 -0.0010092697 0.00053841067 -0.003619059 
  594000    2.6513532  0.023699556    28372.625    242121.21 0.0012742987 -0.00030943578 -0.0002150513 
  595000    2.6516937  0.023304879    28372.625    242407.75 0.0011203981 -0.0010865716 -0.0013955548 
  596000    2.6333089  0.024345831    28372.625    242674.61 0.0007578616  -0.00160121 -0.0045420068 
  597000    2.6388306  0.023685109    28372.625     242952.1 -0.00027497812 -0.00084808846 -0.001020949 
  598000     2.660964   0.02314539    28372.625    243276.94 -0.00096799833 -0.00069860053 -0.00095228428 
  599000    2.6401417  0.024631004    28372.625    243564.08 0.0015960492 -0.00047013154 -0.0024012391 
  600000    2.6286218  0.024177986    28372.625    243838.22 0.0016593119 0.0037545613 -0.0029851666 
  601000    2.6598349  0.023637653    28372.625    244142.92 0.00010920787 3.2220906e-05 0.00067714448 
  602000     2.640649  0.023286387    28372.625    244564.24 -0.0010854977 -0.0011018381 -0.00092184592 
  603000    2.6590821  0.023469503    28372.625    245098.25 0.00064839386 -0.0016022186 -0.00051653626 
  604000     2.658022  0.023565294    28372.625    245559.34 -0.00045763447 -0.00059669376 -0.0031026507 
  605000    2.6513009   0.02363753    28372.625    245991.05 0.0013981508 0.00052059769 -0.0016350933 
  606000    2.6453782  0.023303033    28372.625    246545.55 0.0011922802 -0.001516512 -0.00081509095 
  607000    2.6411004  0.023281029    28372.625    247174.86 0.00018561865 -0.0019727943 0.00019409403 
  608000    2.6312158  0.024114903    28372.625    247747.06 0.0012983684 -0.0018854527 -0.0030680653 
  609000    2.6351453  0.023302321    28372.625    248387.62 -3.9764188e-05 -0.0044636656 -0.003586998 
  610000    2.6387925   0.02344152    28372.625    248977.43 -0.0020220387 -0.0018454814 -0.0025857016 
  611000    2.6516916  0.023852635    28372.625    249435.32 -0.0044866275 -0.0014295313 0.00031338689 
  612000     2.650216  0.023408465    28372.625    249832.62 -0.0011782691 0.0012271167 -0.00080551672 
  613000    2.6601114  0.023552864    28372.625    250210.83 -0.00063551514 -0.00063799307 -0.00053238171 
  614000    2.6415467  0.024333832    28372.625    250543.73 -0.0049497276 -0.0018881504 0.0015613422 
  615000    2.6364593   0.02322672    28372.625    250901.54 -0.00071874363 -0.0029047916 0.0010413293 
  616000    2.6566061  0.023589777    28372.625    251306.79 0.0014716259 -0.00037938528 8.079734e-05 
  617000    2.6301001   0.02442228    28372.625    251629.45 0.0019292097  0.001765537 -0.0032215266 
  618000      2.62887  0.024668622    28372.625    251852.67 0.0056038364  0.003045522 -0.003531825 
  619000    2.6421162  0.023563508    28372.625    252215.62 0.0045558511 0.0012905751 0.0006911944 
  620000    2.6388412  0.023796214    28372.625    252481.62 0.0044485415 0.00095217007 -0.0022946592 
  621000    2.6469006  0.023964486    28372.625    252802.04  0.004594642 0.00025959398 -0.00064275204 
  622000    2.6501946  0.023957099    28372.625    253238.56 0.0020272393 -6.1592855e-05 -0.0019894024 
  623000    2.6477051  0.022988498    28372.625    253761.47 -5.9181208e-06 0.00085567729 -0.00021740469 
  624000    2.6331354  0.023531326    28372.625     254323.4 -0.0031066567 -0.00063362502 -0.0044158268 
  625000    2.6323507  0.023702497    28372.625    254894.43 -0.0041878046 -0.00073643502 -0.0015930943 
  626000    2.6398432  0.023712399    28372.625    255347.64 -0.0032521891 3.3012688e-05 -0.0020181321 
  627000    2.6441061  0.023151882    28372.625    255830.65 -0.0066525743 0.0014546061 0.00069066813 
  628000    2.6506577  0.024908518    28372.625    256277.28 -0.0094242841  0.000585464 -0.00033398762 
  629000    2.6396041  0.024170556    28372.625    256709.88 0.00012801915 -0.0029765502  0.002514911 
  630000    2.6472634   0.02353994    28372.625    257281.69 -0.0007925828 -0.0034679341 0.0021950613 
  631000    2.6241132  0.024922075    28372.625    257777.14 -0.00078155836 -5.706295e-05 0.0025905234 
  632000    2.6408114  0.023785229    28372.625     258211.1 0.0001198344 -0.0036109316  0.001251694 
  633000    2.6435838  0.023129331    28372.625    258617.24 0.0021394638 -0.0025352671 -0.00040673786 
  634000    2.6409228  0.023459258    28372.625    259072.81 0.00032397376 -0.0015705457 -0.002549679 
  635000     2.653663  0.023713842    28372.625    259570.39 0.0007947202 -0.00012426962 -0.0056999935 
  636000    2.6286906  0.024707853    28372.625    260177.41 0.0041009574 0.00094871789 -0.0028178829 
  637000    2.6611398  0.023296704    28372.625    260782.09 -0.0026512329 0.0018357687 -0.0052384543 
  638000    2.6521556   0.02378505    28372.625    261308.73 -0.0036868652 0.0022615072 -0.0065317348 
  639000    2.6463913  0.024287111    28372.625    261842.62 -0.0031219392  0.001295315 -0.0066005779 
  640000    2.6466438  0.023601084    28372.625    262439.83 0.0009991429 0.00036537333 -0.0047096551 
  641000    2.6416495  0.023623763    28372.625    263158.56 -0.0017988073 -0.00016403498 -0.0032041182 
  642000    2.6411559  0.023970371    28372.625    263861.04 -0.0047034369 0.0028484748 -0.0033377969 
  643000    2.6476692  0.023442029    28372.625     264597.1 -0.002458822 0.0023697262 -0.0011942762 
  644000    2.6526929  0.023929377    28372.625    265297.92 -0.0022648434 0.0013449494 -0.00088247573 
  645000    2.6391918   0.02355816    28372.625     265986.9 -0.0018918879  0.001284942 -0.00098527091 
  646000    2.6359492  0.024091394    28372.625    266518.32 4.3020996e-05 -0.0017007829 -0.0016176758 
  647000    2.6458469  0.024127263    28372.625    266965.43 -0.0064829515 -0.0056729054 -0.00097379198 
  648000    2.6384155  0.023853017    28372.625    267354.44 -0.0027694481 -0.0020446157 -0.0007071414 
  649000    2.6477961  0.023302702    28372.625    267824.31 -0.0013784364 -0.0043232512 -0.00097398528 
  650000    2.6382161  0.024286797    28372.625    268403.32 -0.001493973 -0.0050900251 -0.002913483 
  651000    2.6607685  0.023451143    28372.625    268808.14 0.0010051447 -0.0041043842 -0.00064726979 
  652000    2.6460386   0.02363132    28372.625    269236.77 0.0035558681 -0.0034813343 -0.0046763689 
  653000     2.648744  0.023448243    28372.625    269774.22 0.0001621369 -0.0027781529 -0.0042566461 
  654000    2.6434984   0.02437615    28372.625    270428.14 -6.1936953e-05 -0.0056339725 -0.00015016545 
  655000    2.6450307  0.024536409    28372.625    271008.35 0.0036132389 -0.0025794635 0.0011463134 
  656000    2.6385317  0.024941241    28372.625    271653.21 0.0013460003 -0.0030869695 -0.0014189211 
  657000    2.6515244  0.024034177    28372.625    272390.87 -1.3800169e-05 -0.0002569912 -0.00022938005 
  658000    2.6334565  0.023314307    28372.625    273125.18 0.0016848771 -0.00039669318 0.0010157079 
  659000    2.6434551  0.023426694    28372.625    273866.61 0.0037629077 -0.0040288554  0.001739908 
  660000    2.6328901  0.023178802    28372.625     274588.6  0.005250284 -0.0026590086 0.0006868369 
  661000    2.6272232  0.024578174    28372.625    275218.09 0.0047589889 -0.0012151846 -0.0004789822 
  662000    2.6457076  0.023406137    28372.625    275816.92 0.0057200177 -0.0029185836 0.00070305132 
  663000    2.6422951  0.023383819    28372.625    276324.53 0.0070014943 -0.0011837601 -0.0021894852 
  664000    2.6642317  0.023457595    28372.625    276868.45 0.0077350586 -0.0022292785 -0.0014843852 
  665000    2.6551029  0.023257663    28372.625    277382.56  0.008163563 -0.002767003 -0.0013552258 
  666000    2.6420457  0.023233756    28372.625    278001.56  0.011541001 0.00018527798 -0.0010987411 
  667000    2.6579654  0.023503473    28372.625    278603.28 0.0093507064 0.0015365443 0.0032962192 
  668000    2.6372907  0.024148595    28372.625    279148.52 0.0073271787 0.0015428046 0.0025629363 
  669000    2.6411628  0.023633806    28372.625    279560.41 0.0088022456 0.0044337192 0.0031971625 
  670000    2.6518846  0.023510399    28372.625    280004.71 0.0053637138 0.0027418053 -0.00040260446 
  671000    2.6351685  0.024262588    28372.625    280441.37 0.0042578271 0.0050522176 -0.0028047614 
  672000     2.634147  0.024612963    28372.625       280875 0.0038479352 0.0067221656 -0.0027192583 
  673000    2.6576713  0.023723405    28372.625       281217 0.0051438399 0.0038519531 -0.0015193068 
  674000    2.6529958  0.023965975    28372.625    281526.04 0.0058857477 0.0004066979 -0.00042328657 
  675000    2.6568653  0.023340611    28372.625    281851.76 0.0040535836 0.00049495628 -0.0033560566 
  676000    2.6499604  0.023258532    28372.625    282136.11 0.0055430347 -0.0017204709 -0.0025779879 
  677000    2.6482725  0.023347938    28372.625    282402.96 0.0039991456 0.0021446942 -0.0044314414 
  678000     2.655789  0.024053677    28372.625    282767.69 0.0045440946 0.00051224852 -0.0021863968 
  679000    2.6496944  0.023402658    28372.625    283076.57 0.0086460533 -0.00072550825 -0.0031316255 
  680000    2.6554699  0.025209378    28372.625    283329.91 0.0077577997 0.0018263181 -0.0020762772 
  681000    2.6618032   0.02325029    28372.625    283519.76 0.0087926549 -0.00059462984 -0.0011209573 
  682000    2.6192282  0.025519291    28372.625    283721.55  0.015717048 -0.0041237804 -0.0018284333 
  683000    2.6579926  0.023493058    28372.625    283962.97 0.0066844477 -0.001724905 -0.00095322278 
  684000    2.6413856  0.023384668    28372.625    284277.88 0.0039808861 -0.0008554709 -0.00089230947 
  685000     2.644825  0.023717658    28372.625    284706.07 0.0014326147 -0.00031709583 -0.00029771577 
  686000    2.6476008  0.024022663    28372.625     285052.7 0.0024351548 -0.0016178802 0.00027867276 
  687000     2.638573  0.024173861    28372.625     285356.9 0.0027624372 -0.005248418 0.00065874424 
  688000     2.648356  0.023910134    28372.625    285727.55 0.0013630817 -0.0043670419 -0.0003052078 
  689000    2.6420253  0.023360514    28372.625    286199.74 0.0026814922 -0.003999836 0.0023162924 
  690000    2.6410154  0.023484312    28372.625    286713.85 0.0025408613 -0.0044661205 0.00084712114 
  691000    2.6598546  0.024137363    28372.625    287272.78 0.0033758501 -0.0021406401 -0.0003814888 
  692000    2.6518536  0.023453598    28372.625    287885.62 0.0025841476 -0.0027340844 0.0001242955 
  693000    2.6327447  0.024728608    28372.625    288479.63 0.00094061212 -0.0039266063 0.00083201412 
  694000    2.6537458  0.024329326    28372.625    289061.77 0.0017752864 -0.0045005805 0.0026125989 
  695000    2.6459372  0.023367509    28372.625    289661.23 0.00037966825 -0.0021183744 0.0011212895 
  696000    2.6376731  0.023159605    28372.625    290367.56 -4.004437e-05  -0.00266553 -0.00011792729 
  697000    2.6473346  0.023467212    28372.625    291109.62  -0.00195962 -0.0022239027 -0.0022817247 
  698000    2.6610071  0.024014414    28372.625    291731.96 -0.0028832809 -0.0030407895 -0.0019124087 
  699000    2.6493845  0.023929795    28372.625    292351.41 -0.0025566601 -0.0027082908 -0.00019441073 
  700000    2.6329296  0.023990169    28372.625    292897.42 -0.0040477618 -0.0016234394 -0.0063946244 
  701000    2.6507595  0.023539376    28372.625    293457.86 -0.0079621757 -0.0016763531 -0.0049847336 
  702000    2.6547487  0.023950279    28372.625     294072.1 -0.0069886234 -0.0027250416 -0.0053783754 
  703000    2.6412379  0.023761811    28372.625    294483.36 -0.0041943332 -0.00010376717 -0.0067526297 
  704000    2.6209535  0.025084638    28372.625    294831.06 -0.007483832 -0.0021155837 -0.0077249483 
  705000    2.6536522   0.02316944    28372.625    295153.35 -0.0093285255 -0.00068561933 -0.0068985607 
  706000    2.6455684  0.023280225    28372.625    295370.46 -0.0061850439 0.0010138538 -0.0064615027 
  707000    2.6349807  0.023859658    28372.625    295519.52 -0.0022625785 0.0023973624 -0.008758195 
  708000    2.6313638  0.024322228    28372.625    295817.14 -0.0043252843 -0.0011508172  -0.00361311 
  709000    2.6455603  0.023461296    28372.625    296133.98 -0.0062722636 0.0016570794 -0.0049718631 
  710000    2.6523386  0.023720283    28372.625    296496.63 -0.0053280671 0.00011865365 -0.0041105222 
  711000    2.6370445  0.023338969    28372.625     296842.3 -0.0014750564 -0.0012205453 -0.0046954711 
  712000    2.6446301  0.023310666    28372.625    297244.85 -0.0021264569 -0.00087955804 -0.0082188587 
  713000    2.6398282  0.023927455    28372.625    297633.87 -0.00097018458 -0.0017938705 -0.0078482103 
  714000    2.6459114  0.023097416    28372.625    297993.17 0.0033354089 -0.0029232391 -0.0064339739 
  715000    2.6344169  0.024584704    28372.625    298331.75 0.00060931472 -0.0070446719 -0.0062013078 
  716000    2.6479136  0.023587542    28372.625    298765.91 0.0039494123 -0.0027394407 -0.0073303998 
  717000    2.6518121  0.023602564    28372.625    299165.12 0.0022365415 -0.00030387369 -0.0077206505 
  718000    2.6519152  0.023288783    28372.625    299609.16 0.0020138892 0.00054816158 -0.0071871589 
  719000    2.6556067  0.023946329    28372.625    300198.99 0.0027498585 -0.0015848358 -0.0019083667 
  720000     2.643115   0.02447645    28372.625    300729.94 0.0011181013 0.00092231527 -0.0032260029 
  721000    2.6483598  0.023599504    28372.625    301128.36 0.0014335266 0.0019969006 -0.0028926584 
  722000    2.6366471  0.024777757    28372.625    301569.85  0.008935276 0.0040720784 -0.003253025 
  723000    2.6454766  0.023191577    28372.625    302076.54 0.0033463815 0.0036901946 -4.0750924e-05 
  724000    2.6403432  0.023534297    28372.625    302604.37  0.002511782 0.0024675886 -0.00031859609 
  725000    2.6490483  0.023245348    28372.625    303090.86 0.0031858763 -0.00043692096 -0.00086562292 
  726000    2.6482111  0.023877608    28372.625    303451.06 0.0023415319 -0.0034041483 -0.0012069102 
  727000    2.6531956  0.023546852    28372.625    303861.69 -0.0009650703 -0.0053004397 -0.00039315174 
  728000    2.6405861   0.02398586    28372.625    304423.42 -0.0023984056 -0.00023752309  0.003342902 
  729000    2.6363887  0.023819988    28372.625    305002.25 -0.0017890649 -0.00070444801 0.0025912107 
  730000    2.6488692  0.024234947    28372.625    305662.28 0.0011092004 0.0034175116 4.7778704e-05 
  731000    2.6438327  0.023328655    28372.625    306416.66 0.00014347345 0.0013262094 0.0014463037 
  732000    2.6468966  0.024181404    28372.625    307062.38 0.0016153611 0.00043847995 -0.0022910848 
  733000    2.6203055  0.025324003    28372.625    307538.47 -0.0054951938 0.00034426691 -0.003106424 
  734000    2.6404371  0.023395196    28372.625    308052.55 0.0024575592 0.00068000383 -0.0026189729 
  735000    2.6432842  0.023669907    28372.625    308546.14  0.001624475 0.0006279587 -0.00011328455 
  736000    2.6455409  0.024386525    28372.625    308948.48 -0.00095280631 0.0044418313 -0.0012767543 
  737000    2.6385479  0.023722745    28372.625    309307.77 -0.0033456752 0.0053086526 -0.00091433095 
  738000    2.6297229  0.023673121    28372.625    309596.91 -0.0031038037  0.001663894 -0.00060714632 
  739000    2.6544041  0.023551045    28372.625    309824.84 -0.0024416567 -0.0013365537 -0.00018207481 
  740000    2.6512283  0.023397086    28372.625    310076.87 -0.0019757187 0.0035893807 -0.0010979122 
  741000    2.6377739  0.023159684    28372.625    310260.31 -0.0011143963 0.0032949331 -0.002419841 
  742000    2.6422353  0.023541253    28372.625    310478.68 -0.0022119001 0.0051976028 -0.001800786 
  743000    2.6234861  0.024706621    28372.625    310830.22 0.0041926475 0.0055394391 -0.0069950401 
  744000    2.6411242  0.023865019    28372.625    311221.17 0.0049026668  0.004550642 -0.004879286 
  745000    2.6380901  0.023230001    28372.625    311407.48 0.0015953615 0.0070318399 -0.002969394 
  746000    2.6387703  0.023643769    28372.625    311506.34 -0.0021298677 0.0027423322 -0.0013412883 
  747000    2.6458696  0.023290476    28372.625    311693.89 0.00067142835 0.0063935602 -0.00048924539 
  748000    2.6380243  0.024051516    28372.625    311863.71 -0.00058559933 0.0075104846 0.0017388753 
  749000    2.6361055   0.02334716    28372.625    312050.05 -0.0012803892 0.0067711228 -0.0013164843 
  750000    2.6458055  0.023254308    28372.625    312206.36 -0.00063019638 0.00082137124 -0.0014891487 
  751000    2.6655162  0.023694393    28372.625    312266.72 -6.3638536e-05 0.0023263016 -0.0015894085 
  752000    2.6371132  0.023418859    28372.625    312340.49 -0.0012206365 0.00085074664 -0.00060556244 
  753000    2.6472945  0.023463012    28372.625    312350.89 0.0016156414 -0.0012058694 -0.0017842279 
  754000     2.648228  0.023910334    28372.625     312425.2 0.0024196382 -0.00068504682 -0.0015234991 
  755000    2.6423802  0.023482626    28372.625    312595.37 0.0028334323 -0.0014151768 -0.0023513199 
  756000     2.653422  0.023812511    28372.625     312979.5 0.0037622768 -0.0041473748 -0.001794072 
  757000    2.6490108  0.023290465    28372.625    313471.04 0.0054827997 -0.0019561912 0.0015248406 
  758000    2.6441941  0.024149533    28372.625    314118.23 0.0019350614 -0.00050157573 -0.001911632 
  759000    2.6355194  0.023387342    28372.625    314821.65 0.0030069649 0.00048928292 -0.0027754229 
  760000    2.6516131  0.023517251    28372.625    315491.87 0.0026440317 0.0025917322 -9.5513452e-05 
  761000    2.6426819  0.023165656    28372.625    316066.15 0.0017359694 -0.0012768294 -0.00073230706 
  762000    2.6501343  0.024336351    28372.625    316608.31 0.00071855323 0.00014591059 -0.0010522621 
[...]
 1844000    2.6472491  0.023712389    28372.625    812196.29 0.0015050803 0.00095591355 0.0013819258 
 1845000    2.6505892  0.023121489    28372.625    812236.68 0.0064369955 0.0025328272 -5.3655353e-05 
 1846000     2.649961  0.023386051    28372.625    812348.49 0.0071312766 0.0035147514 0.00010729464 
 1847000     2.637924  0.024495095    28372.625    812451.93 0.0088753266 0.0068598704 0.00088993957 
 1848000    2.6453818  0.023903581    28372.625    812456.16 0.0067154437 0.0027958682 0.0006439798 
 1849000    2.6162173  0.025509485    28372.625    812316.23  0.011148333 -0.003985478 -0.0042017219 
 1850000    2.6420175  0.023946104    28372.625    812278.64 0.0020950907 -0.0036120126 -0.0020949948 
 1851000    2.6435212   0.02302447    28372.625    812510.51 0.0018027242 -0.0035532619 -0.0034186261 
 1852000    2.6484685  0.023444832    28372.625    812785.72 0.00054109848 -0.0030347435 -0.0039479432 
 1853000    2.6434777  0.023317901    28372.625    813170.89 0.0014444646 -0.0030719031 -0.0053659463 
 1854000    2.6427804  0.023241413    28372.625    813481.61  0.002351844 -0.0020831328 -0.0038641824 
 1855000    2.6458437  0.023413397    28372.625    813684.05 0.0039111092 -0.00063199996 -0.0041569461 
 1856000    2.6468178  0.023966788    28372.625    813877.42 0.0046357289 -0.0026217314 -0.0033220762 
 1857000    2.6490193  0.023580744    28372.625    814186.89 0.0052393249 -0.0023941915 -0.0036054369 
 1858000    2.6423323  0.023917474    28372.625    814683.05 0.0050440786 -0.00084251981 -0.0070573522 
 1859000    2.6622518  0.023142562    28372.625    815089.78 0.0051964806 -0.0032819362 -0.0036352481 
 1860000    2.6553099  0.023161325    28372.625    815323.81 0.0084982192 -0.0015224774 -0.0046286399 
 1861000    2.6580251  0.023340148    28372.625     815509.3 0.0094702667 -0.0011718125 -0.0031030826 
 1862000    2.6462753  0.023817583    28372.625    815577.85  0.009109257 -0.003458853 -0.0020811751 
 1863000    2.6409845  0.024115591    28372.625    815507.94 0.0099004193 0.0024065839 -0.0034847381 
 1864000     2.628078  0.023575315    28372.625    815451.58 0.0076592573 0.0041960364 -0.0029757285 
 1865000    2.6413518  0.023535549    28372.625    815398.59 0.0084183697 0.0026503676 -0.006237762 
 1866000    2.6432628  0.023323728    28372.625    815275.38 0.0076045306 0.0035275718 -0.0063276083 
 1867000    2.6450206  0.023655154    28372.625    815313.73 0.0077151049 0.0011247761 -0.0046922573 
 1868000    2.6406015  0.023337654    28372.625    815417.62 0.0054950719 0.00080926923 -0.0044824762 
 1869000    2.6414317  0.023215828    28372.625    815562.86 0.0080160988 0.0016523332 0.00021807938 
 1870000    2.6550436  0.024090824    28372.625    815593.11 0.0082911875 -0.0012738317 -0.00078446289 
 1871000    2.6519686  0.023209273    28372.625    815495.69 0.0066939806 -0.0018993902 0.00083447506 
 1872000    2.6408198  0.023771725    28372.625    815602.79 0.0031134632 -0.00069380138 -0.0021693246 
 1873000    2.6490811  0.023433782    28372.625    815737.88 0.0029922049 0.00063191378 -0.0021796944 
 1874000    2.6519801  0.023335627    28372.625    815685.13 0.0037593655 0.0033392706 -0.0036305335 
 1875000    2.6485794   0.02346093    28372.625       815779 0.0049090428 0.0062808106 -0.0061428055 
 1876000    2.6471067  0.023348796    28372.625    815910.98 0.0072072807 0.0072676475 -0.0064678013 
 1877000    2.6415751  0.023434052    28372.625    816202.47 0.0062599592  0.005358346 -0.0066231043 
 1878000    2.6523043  0.023507577    28372.625    816731.64 0.0058348179 0.0026008402 -0.0042371789 
 1879000    2.6487182  0.023853065    28372.625    817477.99 0.0042999289 0.0024722662 -0.0012883839 
 1880000    2.6375619    0.0235365    28372.625     818452.4 0.0027315093 0.00082617279 -0.0049390865 
 1881000    2.6484137  0.023258756    28372.625     819708.5 0.0045602832 0.00057434376 -0.0041914637 
 1882000    2.6494938  0.023976362    28372.625    820995.54 0.0059082729 -8.3994322e-05 -0.0032477373 
 1883000    2.6272467  0.024068822    28372.625    822479.92 0.0020090777 0.0021262176 -0.0050950509 
 1884000    2.6419477  0.024018263    28372.625    823817.29  0.003822437 0.00028514355 -0.0061932729 
 1885000    2.6466331  0.023260848    28372.625    824966.47 0.0065293665 -0.00024508951 -0.007745648 
 1886000    2.6561465  0.023477025    28372.625    826194.65 0.0054703262 1.2097478e-05 -0.0084635865 
 1887000     2.647421  0.023610898    28372.625    827126.95 0.0018531409 -0.0017499922 -0.0066141065 
 1888000    2.6394475  0.023562082    28372.625    828090.23 0.0042387502 -0.0023946199 -0.0019081244 
 1889000    2.6456094  0.023087686    28372.625    828971.78 0.00085208413 -0.0017267968  0.001616182 
 1890000    2.6515059  0.023687844    28372.625    829631.61 -0.00096152721 -0.001097746 -0.0012907351 
 1891000    2.6590646  0.023246434    28372.625    829876.36 0.00038753546 -0.0031911263 0.00071787551 
 1892000    2.6477301  0.023303253    28372.625    830159.97 -0.0025360366 -0.001485909 -0.0041358248 
 1893000    2.6507004   0.02356823    28372.625    830644.29 -0.0023978775 -0.0029864694 -0.0025943124 
 1894000    2.6459937  0.023782035    28372.625    831082.36 -0.003697734 -0.0030812018 -0.0017809565 
 1895000    2.6524559  0.023897871    28372.625    831502.64 -0.0039538599 -0.0028246484 -0.0016754046 
 1896000     2.639767  0.024271651    28372.625    831938.49 -0.00020859395 -0.00041560735 9.5728997e-05 
 1897000     2.645936  0.024278507    28372.625    832385.83 -0.001095423 -0.00048945506 -0.0020657631 
 1898000    2.6437689  0.023615685    28372.625    833175.76 -0.00032064742 0.0019489084 0.00016997186 
 1899000    2.6476728  0.023896379    28372.625    833926.25 -0.0048066391 0.0016969576 -0.00024648629 
 1900000    2.6419622    0.0235777    28372.625    834601.16 -0.0048539191 0.0039093973 0.00038432375 
 1901000    2.6518701  0.023491919    28372.625    835182.54 -0.0030942765 0.0055287094 8.3167698e-05 
 1902000    2.6194053  0.024924958    28372.625    835849.28  -0.00163761    0.0151379 0.0045286279 
 1903000    2.6293463  0.024310548    28372.625    836517.57 -0.0011281646 0.0043043676 -5.8399266e-05 
 1904000    2.6434617   0.02320999    28372.625     837258.4 0.00063635602 0.0032795619 -0.0043704139 
 1905000    2.6421089  0.023775684    28372.625    837844.48 -0.0036052672 0.0040911225 -0.0031858093 
 1906000    2.6342358  0.023862467    28372.625    838408.48 -0.0024099803 0.0069501153 -0.0029217966 
 1907000    2.6513201   0.02364061    28372.625    838750.12 -0.0025362375 0.0050414068 -0.0023981668 
 1908000    2.6293318  0.024842531    28372.625    838987.39 -0.0025431508 0.0043404418 -0.0031155593 
 1909000    2.6306501   0.02426371    28372.625    839337.32 0.00021647715 0.0059362158 -0.0031114359 
 1910000    2.6511757  0.023699286    28372.625    839777.54 -0.0033792184 0.0076235033 -0.00012799454 
 1911000    2.6498881  0.023429989    28372.625    839980.49 -0.0017583337  0.013196488 0.00050740523 
 1912000     2.653425  0.024085431    28372.625    840274.97 -0.0027285631  0.009793698 -5.9005918e-05 
 1913000     2.644828  0.023322016    28372.625    840550.09 -0.0015689268  0.012389869 -0.004385231 
 1914000    2.6538541  0.023550548    28372.625    840698.41 -0.0010573677 0.0077513552 -0.0033264697 
 1915000    2.6629806  0.023741416    28372.625    840763.74 -0.00049124872 0.0074762477 -0.0047566599 
 1916000    2.6569923  0.023382803    28372.625    840779.07 0.0011363329 0.0052050795 -0.0056578737 
 1917000    2.6568464  0.023034929    28372.625    841144.74 0.0027281776 0.0086849854 0.00065040142 
 1918000    2.6501429  0.023444603    28372.625    841680.02 0.0019139464 0.0085421336 0.00036670789 
 1919000    2.6413533   0.02376136    28372.625     842262.4 -0.00091234011  0.010822801 -0.00080650822 
 1920000    2.6525283  0.023583256    28372.625    842852.25 0.00040811225   0.01074925 0.0010440903 
 1921000    2.6359608  0.024669787    28372.625    843448.63 0.0011980262 0.0095938662 -0.0026238023 
 1922000    2.6622423  0.023684736    28372.625    843941.68 0.0030610929 0.0058494159 -0.0019374735 
 1923000    2.6513871  0.023060169    28372.625    844464.06 0.00075563515 0.0068336628 -5.8047919e-05 
 1924000    2.6404849  0.024502742    28372.625    845089.23 0.0013870213 0.0084945476 -0.0012789908 
 1925000    2.6593015  0.024006098    28372.625    845592.67 0.0023842411 0.0031193179 0.0041687708 
 1926000     2.654983  0.023221275    28372.625    846092.79 -0.0016221046 0.0028888209 0.0035820703 
 1927000    2.6665521  0.023601119    28372.625    846677.37 -0.0012447194 -0.00043069507 0.0089470337 
 1928000     2.645022  0.023122663    28372.625    847016.83 -0.003409407 -0.00033971611 0.0089811308 
 1929000    2.6408073  0.024433455    28372.625    847496.47 0.0019564229 -0.0023337061 0.0038098105 
 1930000    2.6337366   0.02347304    28372.625    848157.36 0.0019085032 -0.0050511206 0.0039421207 
 1931000    2.6388115  0.023928765    28372.625    848962.54 0.00090067591 -0.0047601979 0.0038027377 
 1932000    2.6431811  0.023650861    28372.625    849579.44 0.0039326887 -0.0021576704 0.0051958216 
 1933000    2.6554672  0.023392352    28372.625    850350.28 0.0042872091 -0.0028551082 0.0038349014 
 1934000    2.6520971  0.024242698    28372.625    851015.97 0.0012109533 -0.0032394655 0.0014073171 
 1935000      2.65203  0.023723185    28372.625    851724.98 0.0020070652 -0.0034428931 -0.00062392988 
 1936000     2.650733  0.023394821    28372.625    852433.93 0.0039679868 -0.0043329459 -0.00091414294 
 1937000    2.6415602  0.023226963    28372.625    853113.59 0.0049358238 -0.0027208313 -0.00073083162 
 1938000    2.6476818   0.02349649    28372.625    853605.53 0.0020402343 -0.0028305262 0.00030231894 
 1939000    2.6285527    0.0239628    28372.625    853970.56 0.0038880296 -0.0021277318 -0.002625086 
 1940000    2.6452845  0.023930265    28372.625       854293 -0.00023023686 -0.0014697126 -0.0036696182 
 1941000    2.6522782  0.023212383    28372.625    854841.42 -0.0005391782 -0.0009744792 -0.00038328354 
 1942000     2.636088  0.023754043    28372.625    855296.23 -0.00060113516 -0.0019522485 0.0018141615 
 1943000    2.6452049  0.023106705    28372.625    855737.87 -0.0010044219 -0.00029970604 0.00055330326 
 1944000    2.6444959  0.023627594    28372.625    855995.78 -0.0011449255 0.00072840308 0.00055757015 
 1945000    2.6460567  0.023649993    28372.625    856092.48 -0.0016556301  0.003146179 -0.0017440368 
 1946000    2.6399442  0.023262876    28372.625    856181.89 0.0015305137  0.001682477 0.0024165261 
 1947000     2.647543  0.023531273    28372.625    856412.07 0.0036354754  6.33452e-05 0.0003537587 
 1948000    2.6404977  0.023812202    28372.625    856965.51 0.0065698469 -0.0010436765 0.00090044452 
 1949000    2.6533936  0.024489013    28372.625    857413.63 0.0064798496 -0.0011396956 0.0002252262 
 1950000    2.6399253  0.023413936    28372.625    857690.48 0.0037548178 -0.0014980807 0.0018465584 
 1951000    2.6487922  0.023265169    28372.625     858131.7 0.0030187712 0.00077400572 -0.0013156632 
 1952000    2.6576078  0.023413092    28372.625    858704.49  0.005107045 0.0015878842 -0.0013301808 
 1953000    2.6262132  0.025760434    28372.625    859338.68 0.0057191669 0.0052408964 0.0021906688 
 1954000    2.6508169  0.023664474    28372.625    859894.43 0.0045696306  0.001800157 -0.00043450709 
 1955000    2.6510661   0.02348317    28372.625    860397.83 0.0036659689 0.0014429263 -0.0035926754 
 1956000    2.6445614  0.023802544    28372.625    860859.88 0.0042851129 0.0012837824 -0.0053343383 
 1957000      2.64127  0.023336484    28372.625    861370.49 0.0042082081 -0.0046887322 -0.0058907082 
 1958000    2.6556098  0.023678751    28372.625    862006.91 0.0051131707 -0.0048761435 -0.0049413497 
 1959000     2.647654  0.023116497    28372.625    862661.21 0.0050369528 -0.005141151 -0.0050779852 
 1960000    2.6421402   0.02443176    28372.625    863180.75 0.0021029923 -0.0071535366 -0.0040089373 
 1961000     2.625317  0.025236517    28372.625    863610.88 -0.0025102464 -0.0027346948 -0.0062417851 
 1962000     2.639913  0.023371252    28372.625    863997.15 0.0038185109  0.001459397 0.0007031994 
 1963000    2.6316403  0.023817488    28372.625    864409.77 -0.00025751275 0.0059923535 -0.0035084921 
 1964000    2.6131993  0.025176095    28372.625    865241.99 0.0084863709 0.00086394153 -0.0015946828 
 1965000      2.65731  0.023553265    28372.625    865981.64 0.0018708908 0.0034724445 -0.0029147272 
 1966000    2.6453756  0.024020247    28372.625    866702.79 -0.0011833718 0.0058088584 -0.0013298707 
 1967000    2.6264974  0.024586805    28372.625    867473.75 -0.0019636172 0.0095038492 -0.003285244 
 1968000     2.645011  0.023724614    28372.625    867985.59 -0.002388824 0.0055939962 -0.0028563249 
 1969000    2.6363738  0.023737164    28372.625       868387 -0.0006904649 0.0044713681 -0.0043212271 
 1970000    2.6311676  0.024530311    28372.625    868672.99 -8.9520019e-06 0.0050561642 -0.0038992257 
 1971000    2.6482707  0.023269967    28372.625     869001.5 -0.0018447858 0.0046852096 -0.00087161401 
 1972000    2.6436608  0.023273684    28372.625    869273.88 -0.0017630178 0.0046911148 3.985168e-05 
 1973000     2.636569  0.024321002    28372.625    869396.08 0.0012966858 0.0047341113 -0.0033048856 
 1974000    2.6266794  0.025240173    28372.625    869617.88 -0.0013354943 0.0059489629 -0.0021447682 
 1975000    2.6262779  0.024431218    28372.625    870010.67 0.00077949823 0.0036661648 -0.004445418 
 1976000    2.6448535  0.023567989    28372.625    870493.48 0.0020287415 0.0018932925 -0.0042507292 
 1977000     2.651125  0.023324642    28372.625     870817.3 -0.00020237692 -0.0005808555 -0.0073872494 
 1978000    2.6531243   0.02442504    28372.625    871197.39 -0.00060355796 0.00037763671 -0.0045395516 
 1979000    2.6586422   0.02352844    28372.625    871398.46 -0.0031236332 0.0035420382 -0.0073387474 
 1980000    2.6595895   0.02337639    28372.625    871855.37 -0.0010064996 0.0038002493 -0.0039678486 
 1981000    2.6477968  0.024429066    28372.625     872301.3 0.0015717654 0.0048271805 -0.00078523167 
 1982000    2.6609348  0.023101423    28372.625    872508.56 0.0032202429 0.0041035629 -0.00048864223 
 1983000    2.6530416  0.023108827    28372.625    872641.32 0.0051956812 0.0020275443 -0.0011448327 
 1984000    2.6470947  0.023731329    28372.625    872794.44 0.0042684828 0.0033735098 -0.0071953163 
 1985000    2.6544529  0.023879325    28372.625    873101.51 0.0024303895 0.0027584332 -0.0070554092 
 1986000    2.6500578  0.024788825    28372.625    873601.13 0.0029007618 0.0025132845 -0.0083692869 
 1987000    2.6546409  0.023810779    28372.625    874181.62 0.0015551323 0.00084691597 -0.010664265 
 1988000    2.6559546  0.023062816    28372.625    874960.69 -0.0012868212 0.00076028359 -0.0054060616 
 1989000    2.6503017  0.023853137    28372.625    875545.54 -0.0026656487 0.0019257121 -0.0062628341 
 1990000    2.6456906  0.024399049    28372.625    876050.74 -0.0059812554 0.0028596844 -0.0065068888 
 1991000    2.6528774  0.023695168    28372.625    876768.77 -0.0012656717 0.0018347718 -0.0028026597 
 1992000    2.6329837  0.023347673    28372.625    877670.04 -0.0029047265 0.0025104192 -0.0024987201 
 1993000    2.6489144  0.023200384    28372.625    878602.49 -0.0044427031 0.0031531127 -0.0016969387 
 1994000    2.6408208  0.023092145    28372.625    879288.36 -0.0032071104 0.0021691585 -0.0041935181 
 1995000    2.6450415  0.023591461    28372.625     879851.8 -0.0035273751 -0.001339573 -0.0030025065 
 1996000    2.6421404  0.024805268    28372.625    880399.92 -0.0040237509 -0.0016860074 -0.0071286426 
 1997000    2.6515566  0.023920015    28372.625    881081.14 -0.00096781609 -6.9232607e-05 -0.0071557113 
 1998000    2.6432715   0.02374591    28372.625    881610.89 -0.0020409643 0.00060626846 -0.006728675 
 1999000    2.6353858  0.023836126    28372.625    881992.79 0.0001212512 -0.0019589962 -0.0066984228 
 2000000    2.6466337  0.023585392    28372.625    882416.65 -0.0023080778 0.0018594353 -0.0063104333 
Loop time of 786.942 on 1 procs for 2000000 steps with 256 atoms

Pair  time (%) = 10.7797 (1.36982)
Neigh time (%) = 12.8739 (1.63594)
Comm  time (%) = 5.36031 (0.681157)
Outpt time (%) = 0.188364 (0.0239362)
Other time (%) = 757.74 (96.2891)

Nlocal:    256 ave 256 max 256 min
Histogram: 1 0 0 0 0 0 0 0 0 0
Nghost:    169 ave 169 max 169 min
Histogram: 1 0 0 0 0 0 0 0 0 0
Neighs:    106 ave 106 max 106 min
Histogram: 1 0 0 0 0 0 0 0 0 0

Total # of neighbors = 106
Ave neighs/atom = 0.414062
Neighbor list builds = 158931
Dangerous builds = 6886
#	run			10000
	unfix			1
	uncompute		myKE
	uncompute		myPE
	uncompute		myStress
	uncompute		flux
	uncompute		myDis
	unfix			JJ

	next seed
	next iseed
jump lmp.in.gk loop_seed
variable iseed loop 10
variable seed index 11111 22222 33333 44444 55555 66666 77777 88888 99999 11112
clear

# Lennard-Jones
#Prepare Geometry---------------------------------------------------------------
units			lj
atom_style		atomic
read_data		lmp.in.x0.1
  orthogonal box = (0 0 0) to (30.5 30.5 30.5)
  1 by 1 by 1 MPI processor grid
  256 atoms
#Initialize Structure-----------------------------------------------------------
#mass           	1  1.0
#group         		Ar type = 1
#LJ Potentials------------------------------------------------------------------
pair_style		lj/cut 2.5
pair_coeff		* * 1.0 1.0
pair_modify          	shift yes
#pair_modify   	tail no

#Variables----------------------------------------------------------------------
#LJ Parameters
variable    	kB 		equal 1.3806504e-23 	# [J/K] Boltzmann
variable	sigma_Ar 	equal 3.4e-10 		# m
variable	eps_Ar		equal 1.67e-21		# J
variable	mass_Ar		equal 6.63e-26		# kg
variable	tau_Ar		equal 2.1423e-12	# s
#thermo Parameters
variable    	T_melt 		equal 300*(${kB}/${eps_Ar})
variable    	T_melt 		equal 300*(1.3806504000000001236e-23/${eps_Ar})
variable    	T_melt 		equal 300*(1.3806504000000001236e-23/1.6699999999999999942e-21)
variable	T_0K		equal 0.00001
variable	T_2_5K		equal 2.5*(${kB}/${eps_Ar})
variable	T_2_5K		equal 2.5*(1.3806504000000001236e-23/${eps_Ar})
variable	T_2_5K		equal 2.5*(1.3806504000000001236e-23/1.6699999999999999942e-21)
variable	T_5K		equal 5*(${kB}/${eps_Ar})
variable	T_5K		equal 5*(1.3806504000000001236e-23/${eps_Ar})
variable	T_5K		equal 5*(1.3806504000000001236e-23/1.6699999999999999942e-21)
variable	T_10K		equal 10*(${kB}/${eps_Ar})
variable	T_10K		equal 10*(1.3806504000000001236e-23/${eps_Ar})
variable	T_10K		equal 10*(1.3806504000000001236e-23/1.6699999999999999942e-21)
variable	T_15K		equal 15*(${kB}/${eps_Ar})
variable	T_15K		equal 15*(1.3806504000000001236e-23/${eps_Ar})
variable	T_15K		equal 15*(1.3806504000000001236e-23/1.6699999999999999942e-21)
variable	T_320K		equal 320*(${kB}/${eps_Ar})
variable	T_320K		equal 320*(1.3806504000000001236e-23/${eps_Ar})
variable	T_320K		equal 320*(1.3806504000000001236e-23/1.6699999999999999942e-21)

variable   	dt 		equal 0.002
variable	quench_rate	equal 1.0
variable	quench_length 	equal 10000
#kappa parameters
variable    	p 		equal 200000 		# correlation length
variable    	s 		equal 5  		# sample interval
variable    	d 		equal $p*$s 		# dump interval
variable    	d 		equal 200000*$s 		
variable    	d 		equal 200000*5 		

#SED parameters
variable	w_step		equal 2^5
variable	w_total		equal 2^16
variable	t_total		equal 2^18
variable	num_ffts	equal ${t_total}/${w_total}
variable	num_ffts	equal 262144/${w_total}
variable	num_ffts	equal 262144/65536

#------------ RUN TEMP ---------------------------------------------------------------------
variable 	T_run 		equal ${T_320K}
variable 	T_run 		equal 2.6455576526946114058
#------------ RUN TEMP ---------------------------------------------------------------------

log 	log_heat_${iseed}.lammps
log 	log_heat_6.lammps
