	reset_timestep  	0
	fix 			1 all nve
	compute   		myKE all ke/atom
	compute   		myPE all pe/atom
	compute   		myStress all stress/atom virial
	compute   		flux all heat/flux myKE myPE myStress
	variable  		Jx equal c_flux[1]/vol
	variable  		Jy equal c_flux[2]/vol
	variable  		Jz equal c_flux[3]/vol
	fix       		JJ all ave/correlate $s $p $d c_flux[1] c_flux[2] c_flux[3] type auto file J0Jt_${iseed}.dat ave running
	fix       		JJ all ave/correlate 5 $p $d c_flux[1] c_flux[2] c_flux[3] type auto file J0Jt_${iseed}.dat ave running
	fix       		JJ all ave/correlate 5 200000 $d c_flux[1] c_flux[2] c_flux[3] type auto file J0Jt_${iseed}.dat ave running
	fix       		JJ all ave/correlate 5 200000 1000000 c_flux[1] c_flux[2] c_flux[3] type auto file J0Jt_${iseed}.dat ave running
	fix       		JJ all ave/correlate 5 200000 1000000 c_flux[1] c_flux[2] c_flux[3] type auto file J0Jt_6.dat ave running
#	fix       		JJ all ave/correlate $s $p $d c_flux[1] c_flux[2] c_flux[3] type auto ave running
#	dump			JJ all custom 1000000 J0Jt.dat f_JJ[3] f_JJ[4] f_JJ[5]
	compute 		myDis all msd
	thermo_style 		custom step temp press vol c_myDis[4] v_Jx v_Jy v_Jz
	thermo			1000
	timestep		${dt}
	timestep		0.0020000000000000000416
	run			2000000
Memory usage per processor = 3.08201 Mbytes
Step Temp Press Volume myDis[4] Jx Jy Jz 
       0    2.6588359  0.023276107    28372.625            0 0.0039071343 0.00069892975 0.0012090028 
    1000    2.6557141  0.024173914    28372.625    29.838746 0.0012724064  0.001235654 0.0013038211 
    2000     2.639447  0.024979534    28372.625    115.68405 -0.0010061064 0.0021633034 0.0026071453 
    3000    2.6507302  0.023396808    28372.625    254.44209 0.0009275106 0.0036642167 0.0034370757 
    4000    2.6544852  0.023577286    28372.625    442.26998 -0.0005057898 0.0021880206 0.0019172507 
    5000    2.6643581  0.024117363    28372.625    660.76345 0.00057352714 -0.00050234057 0.0051133506 
    6000     2.666855  0.023471771    28372.625    918.25715 0.0015461086 -0.00068008041 0.0025784981 
    7000     2.668875   0.02374923    28372.625    1210.9788  0.003819356 0.00098416017 -0.00074067393 
    8000    2.6585108  0.023682657    28372.625    1530.2092 0.0025110197 0.0031250326 0.00051145002 
    9000    2.6567959  0.024630954    28372.625    1867.1846 0.0036662033 0.0021678873 0.0025080887 
   10000     2.648708  0.023968338    28372.625    2206.6472 0.0074959992 0.0024481764 0.0029734298 
   11000    2.6536464  0.024942992    28372.625    2559.5278  0.002866128 0.0081216081 0.0048685761 
   12000    2.6726456  0.023649276    28372.625    2911.5693 0.0050731117 0.0050359176 0.0018787674 
   13000    2.6578914  0.023582645    28372.625    3271.8751 0.0066067953 0.0016101961 0.0010483427 
   14000    2.6686526  0.023746259    28372.625    3622.3982 0.0065491838 0.0033082742 -9.7119123e-05 
   15000    2.6628288  0.023630234    28372.625    3997.9399 0.0067418508 0.0011229031 -0.0012480621 
   16000    2.6678981  0.023807321    28372.625    4368.0989 0.0045859413 1.306274e-05 -0.0023815847 
   17000    2.6529119  0.023325862    28372.625    4745.2995 0.0025582641 0.0011364808 -0.0034730484 
   18000    2.6572691  0.023640867    28372.625    5132.3175 0.0039946464 0.00075645616 -0.0060902036 
   19000    2.6529901  0.024454554    28372.625    5544.7178 0.0022159868 -0.0027626498 -0.0024880204 
   20000    2.6633432  0.024312697    28372.625    5952.8086 0.0022454512 0.0018213698 -0.00048065948 
   21000    2.6716529   0.02397582    28372.625    6359.8037 0.0044490882 0.00043791756 -0.0026932127 
   22000    2.6672106   0.02364435    28372.625    6767.6662 -0.00085792217  0.001000698 -0.0065843401 
   23000    2.6463057  0.024426922    28372.625    7179.2545 0.0014326017 -0.0018040328 -0.0076438161 
   24000    2.6466083  0.024604898    28372.625    7599.4764 0.00038589091 -0.00085328167 -0.0071232298 
   25000    2.6693077  0.024257356    28372.625    8028.1485 0.00095690407 -6.0976673e-05 -0.0036651541 
   26000    2.6512141  0.023395496    28372.625    8454.1531 0.0022735326 -0.0021660875 -0.0026587999 
   27000    2.6424703  0.025197442    28372.625    8894.0965 -0.00048335495 -0.0017806901 -0.0008051165 
   28000    2.6753928  0.023975222    28372.625    9352.9079 0.00042456784 0.0020187932 -0.00048092376 
   29000    2.6626633  0.023197696    28372.625    9812.4784 -0.00019460396 0.0035005171 0.0043318623 
   30000    2.6677053  0.023704067    28372.625    10284.774 0.00082459317 0.0040127348 0.0057476746 
   31000    2.6634072  0.023384421    28372.625    10769.385 0.0023128894 0.0048902681 0.0062587764 
   32000    2.6620304   0.02449322    28372.625     11257.27 -0.00017278677 0.0035373591   0.00787576 
   33000    2.6468777  0.024397953    28372.625    11749.549 -0.0021680075 0.0036839932 0.0055091506 
   34000    2.6573665  0.023761702    28372.625    12272.281 0.00018394941 0.0049490404 0.0085512568 
   35000    2.6595065  0.023931283    28372.625    12785.099 0.0012478888 0.0025287319 0.0039814203 
   36000    2.6515016   0.02410575    28372.625    13224.021 0.0017323252 0.0062754867 0.0004711827 
   37000    2.6367609  0.024880117    28372.625    13617.065 0.0021488011 0.0082251245 0.0043615395 
   38000    2.6552783  0.023519345    28372.625    14043.578 -0.00045034209 0.0050566458  0.002356427 
   39000    2.6462808  0.023744962    28372.625    14483.092 -0.0022839059 0.0030372242 0.00040337594 
   40000    2.6705392  0.023421441    28372.625    14925.168 -0.0011193906 0.0029891236 0.0049758362 
   41000    2.6507136  0.025348718    28372.625    15346.855 -0.0012406514 0.0041094675 0.0062905607 
   42000    2.6540014  0.023648062    28372.625    15718.331 0.0041051919 0.0030296381 0.0019383609 
   43000    2.6546153  0.023243774    28372.625    16077.247 0.0062103478 0.0044524091 0.0020845564 
   44000    2.6650926  0.023740031    28372.625    16432.821 0.0039201294 0.0028587119 0.0066634163 
   45000    2.6650209  0.023604422    28372.625    16760.123 0.00066049133 0.00096010723 0.0054884035 
   46000    2.6680116  0.023684026    28372.625    17094.567 0.0022797396 0.0018372187  0.008268764 
   47000    2.6622426  0.023563409    28372.625    17429.918 0.0029591027 0.0013498161 0.0082999118 
   48000     2.665124  0.023522997    28372.625     17777.42 0.0033886421 -0.00046505318 0.0053876954 
   49000    2.6559556  0.023618072    28372.625    18140.855 0.0031130826 0.0013115485 0.0042877299 
   50000    2.6523587  0.023338392    28372.625    18522.269 0.0019339433 -0.0022010973 0.0058597901 
   51000    2.6572103  0.023464356    28372.625    18913.593 0.0038933256 0.00032625859 0.0030006712 
   52000    2.6577485  0.023890668    28372.625    19321.116 0.0039194053 -0.001309921 0.0041877604 
   53000     2.655666  0.024474121    28372.625    19740.292 0.0038926865 0.0013541367 0.0010512043 
   54000    2.6436303   0.02460275    28372.625    20143.221 0.0045520305 0.0047718012 0.0035959007 
   55000    2.6675389  0.023917897    28372.625    20536.765 0.0067850664 0.0043713088 0.0041468467 
   56000    2.6687743  0.024828153    28372.625    20958.059 0.0066407892 0.0048400475 0.00070143607 
   57000    2.6425185  0.025114818    28372.625    21386.794 0.0097233243 0.0024749519 0.0025281151 
   58000    2.6539545  0.023169959    28372.625    21804.193  0.011090223 0.0011527395 0.00072207552 
   59000    2.6590909  0.024172256    28372.625    22213.641 0.0076306624 0.0007026823 -0.0042045344 
   60000    2.6499506  0.024015785    28372.625    22641.042 0.0039472939 0.0033806324 -0.0043840125 
   61000    2.6630329  0.023873857    28372.625    23107.874 0.0042757347 0.0038391462 -0.0058205944 
   62000    2.6511697  0.024064306    28372.625    23592.045 0.0054195828 0.0011233249 -0.0019351292 
   63000    2.6472833  0.024134125    28372.625    24094.217 0.0063387785 -0.00047210385 0.00041764709 
   64000    2.6582453  0.023284848    28372.625    24601.417 0.0078533236 0.0041785016 -0.0032340583 
   65000    2.6600782  0.023590774    28372.625    25156.046 0.0077198744 0.0025428419 -0.0024614706 
   66000    2.6522436  0.024758124    28372.625    25741.706 0.0049078763 -0.0014867782 -0.0070570854 
   67000    2.6656759  0.023475165    28372.625    26278.481 0.0022308406 0.0017266953 -0.0048692229 
   68000    2.6450186  0.025650191    28372.625    26771.985  -0.00365693 0.0025204225 -0.0050606314 
   69000    2.6606909  0.023704884    28372.625    27263.911 -0.0049432193 0.0042505349 -0.0039365284 
   70000    2.6547305  0.023452427    28372.625    27708.672 -0.0065755337 0.0036482792 -0.0011024689 
   71000    2.6656089  0.023413593    28372.625    28133.882 -0.0057033427 0.0048587359  0.002389976 
   72000    2.6624186  0.024102529    28372.625    28572.705 -0.0053930374  0.003468529 0.0024645582 
   73000    2.6595847  0.023923972    28372.625    29005.631 -0.0089835276 0.0025621316  0.004381677 
   74000     2.673715  0.023776681    28372.625    29451.619 -0.0078900891 0.0016821989 0.0048428576 
   75000    2.6650786  0.023491215    28372.625    29956.006 -0.0085314024 0.0035453877 0.0062814933 
   76000    2.6632964  0.023637406    28372.625    30460.442 -0.0037780986 0.0037505347  0.008150578 
   77000    2.6688982   0.02402103    28372.625    30961.111 -0.0034400261 0.0022672632 0.0088482236 
   78000    2.6544634  0.024753316    28372.625    31458.593 -0.0037057283 0.00094822337  0.010950721 
   79000    2.6524499  0.023247033    28372.625    32008.944 -0.0023467326 0.0014687364 0.0095879325 
   80000    2.6586095  0.023945608    28372.625    32571.193 0.00054243724 0.0027791611 0.0083911347 
   81000    2.6476047  0.024322497    28372.625    33105.483 -0.00036713027 0.0019255546 0.0078302085 
   82000    2.6512157  0.024702734    28372.625    33690.313 -0.0026575325 0.0054621225 0.0039545987 
   83000    2.6580471    0.0232836    28372.625     34240.18 -0.0030220608 0.0036983641 -0.00010561966 
   84000    2.6493948  0.023263718    28372.625    34754.008 -0.0011181078 0.0023867617 0.0023514725 
   85000    2.6492985  0.023505018    28372.625    35244.995 -0.0014733611  0.002011534 0.0038562453 
   86000    2.6594977   0.02351471    28372.625    35766.773 0.0014626467 0.0026675592 0.0042420298 
   87000    2.6570838  0.023703371    28372.625    36323.526 0.00023030444 0.0016714956  0.002849788 
   88000    2.6537151  0.023946892    28372.625    36842.621 -0.0023628227 -0.003624023 0.0015891921 
   89000    2.6574077  0.023871771    28372.625     37349.21 0.0011772563 -0.0031546524 0.0037514959 
   90000    2.6435518  0.024285426    28372.625    37849.542 -0.0024140218 -0.0036667589 0.0049404326 
   91000     2.651602  0.023236546    28372.625    38308.921 -0.0041005724 -0.0030626392 0.0023638887 
   92000    2.6565089  0.023997521    28372.625    38789.485 -0.0018585724 -3.8364637e-05 0.0033926966 
   93000     2.653393  0.023766967    28372.625    39271.221 -0.0029125705 -0.00037131011 0.0068312666 
   94000    2.6614293  0.023644907    28372.625    39768.133 -0.0037924956 -0.00030120681 0.0068663608 
   95000    2.6516645  0.023813562    28372.625     40247.01 -0.0049885285 -0.00028878612 0.0050889029 
   96000    2.6555015   0.02444484    28372.625    40681.575 -0.0047564338 0.00030534618 0.0072667214 
   97000    2.6642009   0.02370923    28372.625    41059.313 -0.0053714812 -0.0016294223 0.0054375147 
   98000    2.6628539  0.023346194    28372.625    41425.542 -0.010954145 -0.0025706498 0.0015487577 
   99000    2.6528811  0.024523707    28372.625    41791.095 -0.019534399 -0.0088679544 0.0047524612 
  100000    2.6501559  0.024286849    28372.625    42145.805 -0.010289483 -0.0027675046 0.0045223996 
  101000    2.6598448  0.024054174    28372.625    42499.912 -0.0067519683 -0.0045436103 0.0050897808 
  102000    2.6607251  0.023665534    28372.625    42899.621 -0.0066137959 -0.0014355621 0.0046773024 
  103000    2.6485894  0.023285125    28372.625    43295.326 -0.0041924283 -0.003526996 0.0029668186 
  104000    2.6571623  0.023328041    28372.625     43739.78 -0.0042041218 -0.0035911286 0.0023992769 
  105000    2.6646591   0.02380473    28372.625    44183.419 -0.0023241558 -0.0018207629 -0.00051823184 
  106000    2.6634774  0.024464291    28372.625    44618.888 -0.0043021903 -0.00068598894 0.00066700667 
  107000    2.6598155  0.023503384    28372.625     45070.93 -0.006074029 0.00046522716 0.0052249196 
  108000    2.6541396  0.025039934    28372.625    45563.569 -0.0071304631 -0.0020756538 0.0006391364 
  109000    2.6722594  0.023359906    28372.625     46069.69 -0.0067237479 -0.00090054169 0.0028521132 
  110000    2.6549802  0.024360593    28372.625    46632.932 -0.0064174694 -0.00019011047 0.0030431417 
  111000    2.6527602   0.02434231    28372.625    47165.729 -0.0062151217 0.0011716016 0.0042362621 
  112000    2.6670344  0.024186829    28372.625    47656.898 -0.0069217238 -0.00058795906 0.0033692413 
  113000    2.6555192  0.024577705    28372.625    48129.852 -0.0070117866 -0.00032689753 0.0055297316 
  114000    2.6655951  0.024026102    28372.625    48593.731 -0.003929263 -0.00039513042 0.0061394026 
  115000     2.667861  0.023881949    28372.625    49038.636 -0.0061520277 0.0030814144 0.0029131192 
  116000    2.6531197  0.023401091    28372.625    49511.192 -0.0073374285 -0.00011886319 0.00077493092 
  117000    2.6768112  0.023787257    28372.625    49942.739 -0.0054063549 -0.00076777389 -0.0011293738 
  118000    2.6588587  0.023843768    28372.625    50369.927 -0.0023157838 0.0024476042  0.006023424 
  119000    2.6398145  0.024290916    28372.625     50784.51 -0.0068918515 0.0027457035 0.0069588744 
  120000    2.6629721  0.023835366    28372.625    51217.027 -0.0044937212 0.0034553416 0.0036638094 
  121000    2.6625551  0.023406083    28372.625    51679.201 -0.0050409065 0.0033257546 0.0057619951 
  122000    2.6621627  0.023470474    28372.625    52134.729 -0.0030842959 0.0024987068 0.0048878585 
  123000    2.6563138  0.023211719    28372.625    52594.715 3.1649679e-05  0.001739521 0.0049262931 
  124000    2.6579911  0.023773497    28372.625     52999.16 0.0020410363 0.0029189419 0.0031135429 
  125000    2.6577639  0.024006811    28372.625    53415.736 0.0033919244 0.0054118085 -0.0025717996 
  126000    2.6603001  0.023645318    28372.625    53795.152 0.0024827003 0.0051402368 -0.0015519895 
  127000    2.6660964  0.023393213    28372.625    54145.343 0.00035963443  0.004530504 -0.0013973265 
  128000     2.663516  0.023380262    28372.625    54484.503 0.00010836656 0.0047028463 -0.0018234247 
  129000    2.6609882  0.023988971    28372.625    54795.108 -0.0020869198 0.0061391084 -0.004611851 
  130000    2.6633052  0.024091742    28372.625    55093.114 -0.0041081924 0.0076071661 -0.0053482655 
  131000    2.6630552  0.023202226    28372.625    55494.873 -6.938471e-06 0.0081440971 -0.0076380998 
  132000    2.6537049   0.02424524    28372.625    55946.574 -0.0012859299 0.0075010824 -0.0057902618 
  133000    2.6374129  0.024692617    28372.625    56390.403 0.0010070779   0.00654665 -0.0060582141 
  134000    2.6478931  0.024467126    28372.625    56857.064 -0.0015933781  0.006512148 -0.0054977548 
  135000     2.656662  0.023660451    28372.625    57337.256 9.5306114e-05  0.008558599 -0.002255999 
  136000    2.6227828  0.025657623    28372.625    57823.965 0.00018675608  0.014986454 -0.0023063545 
  137000     2.661776  0.023360635    28372.625    58307.778 0.0023500949 0.0072042416 -0.0010262965 
  138000    2.6629825  0.024878555    28372.625    58816.377 0.0038096295 0.0088061755 -0.001461138 
  139000      2.65802  0.024460934    28372.625    59364.204 0.0019652106 0.0094299574 0.0016358775 
  140000    2.6647596  0.023102883    28372.625    59891.241 0.0055933262 0.0092625937 0.0055591601 
  141000    2.6598156  0.024595714    28372.625    60468.513 0.0040641686 0.0068414895 0.0038219782 
  142000    2.6586268  0.023476832    28372.625    60962.108 0.0074587742 0.0062986744 0.0026279772 
  143000    2.6575719   0.02390042    28372.625    61396.407 0.0080017999 0.0010601039 0.0036277839 
  144000    2.6631384  0.023606701    28372.625    61807.177 0.0035810094 0.0022846186 0.0036033406 
  145000    2.6455281  0.024083979    28372.625    62268.775 0.0033009274 0.00049558775 0.00054967319 
  146000     2.657596  0.023604637    28372.625      62700.7 0.0022614607 -0.00096343709 0.0011396319 
  147000    2.6575349  0.023921626    28372.625    63122.983 -0.0014128659 -0.0038023314 -0.00035438984 
  148000    2.6588384  0.024023142    28372.625    63554.573 -0.0027436181 -0.0033088373 0.0022762703 
  149000    2.6518128  0.024406755    28372.625    63942.521 -0.0011928301 -0.0061332619 -0.0012267275 
  150000    2.6625111   0.02346404    28372.625    64367.356 0.00064191368 -0.0053889501 0.0011821606 
  151000    2.6592718  0.023536329    28372.625    64767.148 -0.0016274522 -0.0030052484 -0.0012993481 
  152000     2.653697  0.023398376    28372.625    65190.608 -0.00058857532 -0.0034940142 -0.0011419287 
  153000    2.6610207  0.024337981    28372.625    65646.656  -0.00297715 -0.0025161565 0.00082608099 
  154000    2.6541137  0.024152596    28372.625    66109.284 -0.0041104307 0.0017164884 0.00017724593 
  155000    2.6508287  0.024075968    28372.625    66526.543 -0.00037113681 0.0018285311 -0.0011790432 
  156000    2.6685926  0.023216867    28372.625    66972.281 0.0011432323 0.0039685755 0.0018422599 
  157000    2.6357441  0.024698938    28372.625    67405.329 -0.0011275552 0.0048808917 -0.0020617458 
  158000    2.6417872  0.024770055    28372.625    67851.293 -0.0003828079 0.0055712103 0.00063441738 
  159000    2.6561998  0.023644125    28372.625    68318.494 -0.0039179473 0.0048590868 0.0023491092 
  160000    2.6562279  0.023793552    28372.625    68841.901 -0.0063621971 0.0066222259 0.0037554545 
  161000    2.6551127  0.024158722    28372.625    69364.267 -0.0062610681 0.0078901152 0.0038143966 
  162000    2.6668769  0.023563607    28372.625    69895.831 -0.0070322401 0.0062232934 0.0012382277 
  163000    2.6519781  0.023337414    28372.625    70433.417 -0.004309685 0.0070394762 0.00028026498 
  164000    2.6561355  0.023396745    28372.625    70917.871 -0.0050345999 0.0074775699 -0.0026584542 
  165000    2.6498122  0.023513992    28372.625    71460.077 -0.0045177856 0.0074598253 -0.0024784928 
  166000    2.6435005  0.024301724    28372.625    71954.522 0.00055631737  0.004702536 0.00016096852 
  167000    2.6553937  0.023478418    28372.625    72472.662 0.00029204917 0.0063837577 -0.00080645866 
  168000    2.6570621  0.024562125    28372.625     72964.72 -0.00075609038 0.0036074607 0.0072216305 
  169000    2.6482269  0.024376021    28372.625    73477.705 -0.0042881356 0.0042216294 0.0025780033 
  170000    2.6752231  0.023720944    28372.625    73911.028 -0.0040370307  0.003176015 0.0004642381 
  171000    2.6654701  0.023633581    28372.625    74394.313 -0.0041630843 -0.00028546898 0.0010088951 
  172000    2.6641811  0.023721452    28372.625    74866.642 -0.0038084108 0.0015474653 0.0032888099 
  173000    2.6622863  0.023613518    28372.625    75339.354 -0.00067168255 0.0042513208 0.0054974493 
  174000    2.6636466  0.023623732    28372.625     75876.18 0.0038332767 -0.00059012174  0.001015865 
  175000    2.6683025  0.024644609    28372.625    76469.122 0.00099640656 -0.00037489264 0.0025040862 
  176000    2.6626861  0.024094765    28372.625    77059.609 0.0062915201 0.0033396261 0.0010562622 
  177000     2.675807   0.02358024    28372.625    77618.191 0.0044106644 0.00055342874 0.0065168137 
  178000    2.6447816  0.025361184    28372.625    78210.315 0.0034683854 -0.00076743206  0.004437655 
  179000    2.6560427  0.024575043    28372.625    78669.433  0.006280932 -0.0053109756  0.003709503 
  180000    2.6450493  0.024715532    28372.625    79156.895 0.0080525786 -0.0092418084 -0.00010283459 
  181000    2.6421697  0.025152054    28372.625    79670.253  0.012036988 0.0009250484 -0.0016647786 
  182000    2.6485748   0.02396208    28372.625     80167.22  0.010212421 -0.00044163663 -0.00014750789 
  183000    2.6700616  0.024032483    28372.625    80646.952 0.0099297494 -0.0024207945 -0.0040675458 
  184000    2.6697032  0.023560185    28372.625    81106.155  0.010496596 -0.00088223891 -0.0039600706 
  185000    2.6507633   0.02333914    28372.625    81521.449  0.013117225 0.0018582249 -0.0055242226 
  186000    2.6589319  0.024027085    28372.625    81974.557 0.0068864497 -0.00071565415 -0.0017323726 
  187000    2.6447629  0.024091464    28372.625    82441.493 0.0051857726 -0.0030110535 -0.00013654295 
  188000    2.6517581  0.023857679    28372.625    82912.242 0.0043346969 -0.00068826328 0.00044792594 
  189000    2.6629498  0.023768105    28372.625     83411.85 0.0037013002 -0.0017596739 -0.0024170134 
  190000     2.655069  0.023716021    28372.625    83971.064 0.0044459408 0.00010431339 -0.0032916792 
  191000    2.6118688  0.025726089    28372.625     84497.49 -0.0052753714 -0.00085430307  -0.01537083 
  192000     2.659684  0.023674869    28372.625     85033.53 0.0078128816 0.00061138168 -0.010375529 
  193000    2.6664638  0.023557006    28372.625    85646.452 0.0057588212 -0.0018211568 -0.0088095978 
  194000    2.6508986  0.023424696    28372.625    86289.221 0.0063788158 -0.0019750309 -0.0095096511 
  195000    2.6426338  0.025201164    28372.625    86876.528 0.0090536612 -0.0037351735 -0.0067311695 
  196000    2.6662183  0.024131396    28372.625     87494.28 0.0099265785 -0.0020425801 -0.0010659922 
  197000    2.6546049  0.023991594    28372.625    87997.515 0.0081604422 -0.0017522996 -0.0003087444 
  198000    2.6493217  0.023455424    28372.625    88495.682 0.0071364359 0.00070145049 -0.00010381665 
  199000    2.6636691  0.023175919    28372.625    89060.825 0.0067547577 -0.0021903989 -0.0016641224 
  200000    2.6562253  0.023270755    28372.625    89628.231 0.0053220541 -0.003049175 -0.0044909144 
  201000    2.6531033  0.024232419    28372.625    90181.483 0.0042821681 -0.0010857547 -0.0046153096 
  202000      2.65256  0.024054704    28372.625    90770.317 0.0050950781 -0.0010115487 -0.0043638048 
  203000    2.6598513  0.023362913    28372.625    91361.189 0.0053249809 0.00049646229 -0.0058795655 
  204000    2.6615242  0.023671774    28372.625    91982.699 0.0007689632 0.0051873467 -0.0023718531 
  205000     2.660771  0.024106202    28372.625    92717.604 0.0019134601 -0.00088166963 -0.0056740384 
  206000     2.655704  0.024293913    28372.625    93486.359 -0.0017595342 -0.0015565445 -0.0069272057 
  207000    2.6497638  0.024102034    28372.625    94297.914 0.00031884179 0.00093050806 -0.0066140465 
  208000    2.6477453  0.024712972    28372.625    95115.678 -9.8344425e-06 0.00012139708 -0.0037771633 
  209000    2.6559683  0.023445007    28372.625    95770.195 0.0026959322 0.00092383837 0.00010934698 
  210000    2.6667286  0.023617665    28372.625    96417.927 0.0044406105  0.001841259 -0.00054691465 
  211000    2.6532291   0.02358351    28372.625    97060.271 0.0034706416 0.00083044011 0.0021065884 
  212000    2.6651929  0.023475637    28372.625     97773.17 0.0037437682 -0.0021590575 0.0020302403 
  213000    2.6567812  0.023597892    28372.625    98367.286 0.0012479114  -0.00137919 0.0035395438 
  214000    2.6663418  0.023606805    28372.625    98859.681 0.0016289123 -0.00017957683 0.0035051581 
  215000    2.6587758  0.023156015    28372.625    99399.783 -2.1593085e-05 0.00038590851 -0.00024925029 
  216000    2.6626325  0.023495321    28372.625    99950.502 -0.0025206457 -0.000746131  0.001672122 
  217000    2.6683971  0.023562572    28372.625    100466.43 -0.001673991 -2.5036312e-05 0.0017729365 
  218000     2.656343  0.024489522    28372.625    100887.32 0.0015073499 -0.0033143651 0.0040691493 
  219000    2.6617082  0.023506625    28372.625    101152.98 -0.00026185799 -0.0028621525 0.00094712238 
  220000    2.6462823  0.024285728    28372.625    101367.38 0.0005899512 -0.0030419106 0.00049234474 
  221000    2.6355475  0.024651653    28372.625     101616.6  0.004985876 -0.008042825 -3.3997228e-05 
  222000    2.6462274  0.023520952    28372.625    101862.66 -0.00042664689 -0.009988604 -0.0017951669 
  223000      2.63537   0.02496969    28372.625     102126.2 0.0031032984 -0.007556967 0.0052295022 
  224000    2.6574857  0.023307352    28372.625    102371.74 0.0032850745 -0.0057727445 -0.0037256897 
  225000     2.670202  0.024091626    28372.625     102662.6 0.0032555673 -0.0060554517 -0.0028242526 
  226000    2.6480886   0.02352993    28372.625    103074.01 0.00098382646 -0.0071923201 -0.0055508419 
  227000    2.6551785  0.023304272    28372.625    103597.28 0.0014622457 -0.0061711355 -0.0067513687 
  228000    2.6508537   0.02416238    28372.625    104117.41  0.002488183 -0.0050777138 -0.0065286044 
  229000    2.6648855  0.023718953    28372.625    104638.08 0.0031033698 -0.0066770796 -0.0017814178 
  230000    2.6510111  0.023610778    28372.625    105136.66 0.0054762856 -0.0039493463 -0.001983822 
  231000    2.6615515  0.023990542    28372.625     105627.5 0.0060104849 -0.0079028726 -0.0019933294 
  232000    2.6508405  0.023585386    28372.625    106214.56 0.0032974569 -0.0050003402 -0.0036276875 
  233000    2.6552122  0.023889039    28372.625    106881.25 0.00044773739 -0.004915459 -0.0035176358 
  234000    2.6703227  0.023563979    28372.625    107640.61 -0.00056673009 -0.0068238956 -0.0023620943 
  235000    2.6665814  0.024024462    28372.625    108338.38 -0.0045545863 -0.006634982 -0.0045784601 
  236000    2.6525703  0.024334715    28372.625    108974.44 -0.0037805493 -0.0031247191 -0.0027122181 
  237000    2.6577455  0.023570024    28372.625    109628.82 -0.0017665308 -0.002710271 -0.0025672947 
  238000    2.6565377  0.023862465    28372.625    110357.92 -0.0032641954 -0.004615733 -0.0053100776 
  239000    2.6580488  0.023674625    28372.625    111134.22 -0.0044175348 0.00026262941 -0.0022549999 
  240000    2.6629981  0.023537956    28372.625     111807.2 -0.0020478177 0.0043224448 -0.0013488458 
  241000    2.6695705  0.023588741    28372.625    112392.46 -0.0047624616 0.0054026663 -0.0027581795 
  242000    2.6595721  0.023839998    28372.625    112995.81 -0.0035471277 0.0057114915 -0.0033549528 
  243000    2.6324645  0.025195717    28372.625    113519.44 -0.0016329345 0.0061160428 -0.0023911136 
  244000    2.6469177  0.024442004    28372.625     114004.9 -0.0032697168 0.0065678771 -0.0013450263 
  245000    2.6520021  0.023437568    28372.625    114534.13 -0.004478931 0.0041947827 -0.0025262863 
  246000    2.6548597  0.023353085    28372.625    115110.06 -0.0025440798 0.0060419381 -0.0051401474 
  247000    2.6611246  0.023327306    28372.625    115702.73 -0.0051315355 0.0056169004 -0.0065950229 
  248000    2.6561407  0.023182682    28372.625    116298.62 -0.0041498346  0.004179258 -0.0015187445 
  249000    2.6558663  0.023461105    28372.625    116958.99 -0.0052379891 0.0018620536 -0.0037518865 
  250000    2.6400177  0.023933145    28372.625    117689.33 -0.0050189404 0.0042341678 -0.0053502589 
  251000    2.6591531  0.023453771    28372.625    118341.61 -0.0035702597 0.0052283864 -0.0060354429 
  252000    2.6499042  0.024136794    28372.625    119002.59 0.00089629756 0.0073634819 -0.0068323461 
  253000    2.6366117  0.025655979    28372.625    119564.52 0.0035090628 0.0045852053 -0.0084825154 
  254000    2.6546933  0.023606526    28372.625    120133.73 0.0017952977 0.0042209038 -0.0090444101 
  255000    2.6471595  0.025090089    28372.625    120708.11 -0.001743449 0.0033637996 -0.0015616996 
  256000     2.646065  0.023963722    28372.625    121424.18 0.0017282468 0.0049515892 -0.0088800179 
  257000    2.6430097  0.024490492    28372.625    122175.78 0.0056303492 -0.0021189086 -0.0025416212 
  258000     2.649392  0.023292223    28372.625    122911.84 0.0036672705 0.0049937952 -0.0067101865 
  259000    2.6549449  0.023591341    28372.625    123651.87  0.002215356 0.0061034763 -0.0025728923 
  260000    2.6668648  0.024098302    28372.625     124390.4 0.0044940457 0.0055122948 -0.002678253 
  261000    2.6623219  0.023357224    28372.625    125009.95 0.0062105599 0.0041007847 -0.003874591 
  262000    2.6635462  0.023296974    28372.625    125511.76 0.0056957707 0.0030476507 -0.0032764574 
  263000    2.6771082  0.023385582    28372.625    125941.36 0.0056725453 0.0033097147 -0.0047288652 
  264000    2.6603272  0.023761021    28372.625    126302.07 0.0054779909  0.001726592 -0.0067680889 
  265000    2.6581203  0.023318839    28372.625    126589.79 0.0043007199 0.0011567705 -0.0066763484 
  266000    2.6617124   0.02336265    28372.625    126830.54 0.0037092722 0.0002307609 -0.0096061116 
  267000    2.6645426  0.023360534    28372.625    127095.71 0.0039484876 0.0023276843 -0.010007317 
  268000    2.6552646  0.023406641    28372.625    127349.59 0.00029450525 -0.00058467838 -0.0075574422 
  269000    2.6630346  0.023528596    28372.625    127639.75 -0.00034425331 -0.00012828611 -0.0082676309 
  270000    2.6508159  0.023925707    28372.625    127881.08 0.00072953392   0.00105761 -0.0058775695 
  271000    2.6677871  0.023716202    28372.625     128059.5 0.0013096353 -0.0028359762 -0.0080028837 
  272000    2.6469805  0.024311627    28372.625     128237.4 -0.0014520531 -0.0025087052 -0.0036446771 
  273000    2.6529637  0.023829203    28372.625     128287.5 0.0012309262 -0.0050307687 -0.0051848817 
  274000    2.6638298  0.024261539    28372.625    128308.79 0.0024984798 -0.0068320285 -0.0080325643 
  275000    2.6527632  0.023662592    28372.625    128478.67 0.0011555317 -0.0041368214 -0.0083951255 
  276000    2.6778754  0.023834307    28372.625    128743.07 0.0017127292 -0.0034632174 -0.0088656275 
  277000    2.6721971  0.023874693    28372.625    128971.76 -0.001531642 -0.0044215412 -0.010458102 
  278000    2.6504197  0.023851306    28372.625    129210.69 -0.003375499 -0.0039290215 -0.0062766611 
  279000    2.6541631  0.024490928    28372.625    129486.35 -0.003438536 -0.007402194 -0.0077550853 
  280000    2.6593343  0.023475692    28372.625    129753.09 -0.0012875137 -0.0052795421 -0.0062514314 
  281000    2.6664312  0.023818361    28372.625     130128.8 -0.0019396352 -0.0065239447 -0.0061485071 
  282000    2.6533705  0.023557384    28372.625    130465.94 0.0011066957  -0.00867579 -0.0057786423 
  283000       2.6673  0.023460257    28372.625    130823.17 -0.0028251496 -0.0067757846 -0.000964387 
  284000    2.6491073  0.023660165    28372.625    131056.85 -0.0024780048 -0.0079668727 0.0021123339 
  285000     2.660049  0.024130141    28372.625    131348.23 -0.0015618556 -0.0065583831 -0.00026430988 
  286000    2.6566519  0.023185874    28372.625    131703.32 -0.001982556  -0.00409591 0.0029732777 
  287000    2.6707768  0.023334715    28372.625    132035.38 -0.0031409219 -0.0045117688 -0.00013857676 
  288000    2.6701796  0.023869371    28372.625    132376.19 -0.0027746296 -0.0024548408 0.0017405475 
  289000    2.6593636  0.024107496    28372.625    132791.55 -0.0021833022 -0.0012247531 4.100701e-05 
  290000    2.6669873  0.023511454    28372.625    133246.73 -0.0019313783 -0.0017688485  0.001270718 
  291000    2.6560833  0.023849283    28372.625     133734.8 -0.00090322693 -7.8208966e-05 0.0011253823 
  292000     2.636001  0.025380111    28372.625    134241.06 -0.002319715 -0.0018823725 0.0024603046 
  293000    2.6735254  0.023838919    28372.625    134701.12 0.0022073846 -0.0038140634 0.0010901509 
  294000    2.6470273  0.024510334    28372.625    135173.76 -0.0019541271 -0.00021687043 -0.0039974147 
  295000    2.6469272  0.023331297    28372.625    135606.31 0.00043252161 -0.0024848404 0.00028125946 
  296000    2.6594595  0.023172893    28372.625    136057.26 -0.00022580793 -0.0032783146 -0.0018006815 
  297000    2.6528679  0.024367242    28372.625     136489.9 -0.00015118484 -0.0046106144 -2.9543445e-05 
  298000    2.6707245  0.023624501    28372.625    136926.76 0.0015565266 -0.0011913291 -0.0012299918 
  299000    2.6526103  0.023792067    28372.625    137303.82 0.0018244287 -0.00066603268 -0.0058572331 
  300000    2.6607408  0.023608599    28372.625    137606.92 0.0048819085 0.00037425552 -0.0033947859 
  301000    2.6548834  0.023414874    28372.625    137802.18 0.0061449213 0.0025386267 -0.0035152572 
  302000    2.6548279  0.024293343    28372.625    138034.23 0.0049475362 0.0017130035 -0.0047153142 
  303000    2.6359511  0.025054485    28372.625    138241.39 0.0025770569 0.0033876658 -0.0064665191 
  304000    2.6570543  0.023808046    28372.625    138435.99 0.0021170663 -0.0014725069 -0.0041175037 
  305000    2.6459209   0.02516333    28372.625    138629.71 0.0085356297 -0.0014228308 -0.00074912457 
  306000    2.6628466  0.024002351    28372.625    138839.12 -0.0023946391 -0.0023273299 0.0011102827 
  307000    2.6687941  0.023357752    28372.625    139148.12 -0.0029899757 -0.0035684164 -0.0020235541 
  308000    2.6563705  0.023446745    28372.625    139535.45 -0.001172031 -0.0035590828 -0.0028877208 
  309000    2.6632124  0.023531611    28372.625    139909.46 -0.0031253063 -0.0019131335 -0.0021259299 
  310000    2.6712497  0.023547176    28372.625    140258.95 -0.0012608119 -0.0027767823 -0.00042104225 
  311000    2.6614759  0.023585509    28372.625    140716.64 -0.00060895781 -0.0018724975 -0.0017208807 
  312000    2.6671502   0.02355087    28372.625    141104.56  -0.00151706 -0.0015619119 -0.0016706729 
  313000    2.6638415  0.023696759    28372.625    141544.12 0.0010041264 -0.0018321165 -0.00025449813 
  314000    2.6705123  0.024147383    28372.625    141979.02 0.0030355913 -0.0029401603 -0.0023424483 
  315000    2.6477452  0.023617409    28372.625    142457.55 0.0028352777 -0.002137632 -0.0034295341 
  316000    2.6572423  0.023615176    28372.625       142992 0.0033189552 0.0016035084 -0.00040159613 
  317000    2.6537469  0.023528271    28372.625    143568.81 0.00098818893 0.0027227607 0.0021866058 
  318000    2.6495155  0.023871862    28372.625    144184.87 0.0017782044 0.0048658062 0.0019023176 
  319000    2.6559981  0.023485708    28372.625    144810.26  0.001813711 0.0036694934 0.0017239861 
  320000    2.6671685  0.023603209    28372.625    145487.24 0.0012658028 0.0023701582 0.0017149738 
  321000    2.6556628  0.023308969    28372.625    146138.69 0.0011079084 0.0014168081 -0.00065322623 
  322000    2.6642801  0.023659764    28372.625     146686.3 0.00041538224 0.00077875226 -0.0018267767 
  323000    2.6665766  0.024077298    28372.625    147289.66 -0.0012831362 0.00024783456 -0.0027346488 
  324000    2.6603488  0.023659649    28372.625    147899.83 -0.0017423545 -0.0038873176 -0.0015342502 
  325000    2.6652016  0.023648304    28372.625    148605.22 5.2119077e-05 -0.0027624471  -0.00360129 
  326000    2.6684707  0.023319806    28372.625    149342.98 0.00013718669 0.00076916006 -0.0045558524 
  327000     2.661348  0.024015458    28372.625    150002.18 0.00017741137 8.915425e-05 -0.0048964598 
  328000    2.6627083  0.023941396    28372.625    150655.35 0.00031391803 -0.0015439324 -0.0040504678 
  329000     2.654343  0.024424209    28372.625     151289.5 0.00017912782 -0.0010792716 -0.0041261668 
  330000     2.652589  0.023983595    28372.625    151926.36 -0.00063724969 -0.0025242596 -0.0032941128 
  331000    2.6579947  0.024365879    28372.625    152580.32 -0.00074958536 -0.002919588 -0.0064136677 
  332000    2.6644748  0.023526753    28372.625    153195.34 0.00033056007 -0.0018794346 -0.0077137258 
  333000    2.6521304  0.024545145    28372.625    153789.15 -0.0021479578 -0.00022389702 -0.0081928335 
  334000    2.6466752  0.024239564    28372.625    154499.26 -0.0021177381 -0.00035970089 -0.0070361131 
  335000    2.6565916  0.023389233    28372.625    155158.22 -0.0017654065 8.7657758e-05 -0.0057275487 
  336000    2.6624334  0.023915145    28372.625    155767.86 -0.0012096105 -0.0024031185 -0.0052301334 
  337000    2.6622027   0.02374785    28372.625    156236.67 0.00095349873 -0.0025833901 -0.0073417075 
  338000    2.6553866  0.023491662    28372.625     156694.2 -3.9848996e-05 -0.0023029772 -0.0062217527 
  339000    2.6589568  0.023316924    28372.625    157079.23 0.0043019216 -0.0036004252 -0.0074016365 
  340000    2.6517629   0.02418402    28372.625    157298.27 0.0020843073 7.0235276e-05 -0.0024627719 
  341000    2.6704637  0.023500452    28372.625    157431.32 7.1887086e-05 -0.0040407447 -0.003498689 
  342000    2.6617962   0.02319463    28372.625    157600.37 0.0039142592 -0.0020630393 0.00069291384 
  343000    2.6565473  0.023407476    28372.625    157717.51 0.0054274676 -0.0030896051 0.0026040909 
  344000    2.6549289  0.023986007    28372.625    157851.43  0.006642549 0.00024043762  0.004468443 
  345000    2.6451194  0.024787663    28372.625    158107.04   0.00664792 -0.0029836134 0.0017408153 
  346000    2.6607774  0.023441844    28372.625    158465.53 0.0067585825 0.0014366614 0.0047583334 
  347000    2.6638842  0.023715087    28372.625    158900.32  0.012480962 0.0042000133 0.0065983957 
  348000    2.6602521  0.023892994    28372.625    159302.37 0.0078446958 0.0014430192 0.0025367844 
  349000    2.6528859  0.024050537    28372.625    159681.87  0.008714579 0.0047866939 0.0036898991 
  350000    2.6480573  0.024050746    28372.625    160043.78 0.0074754312 0.0038938079 0.0009494229 
  351000    2.6533659  0.024240501    28372.625    160433.85 0.0065186226 0.0030962963 0.0011155152 
  352000    2.6593915  0.023435355    28372.625    160837.84  0.004029783 0.00033310651 0.00061011291 
  353000    2.6533936  0.023439639    28372.625    161230.21 0.0037046675 -0.0017230015 -0.0042306017 
  354000    2.6601883  0.023368243    28372.625    161551.87 0.0020546146 -0.0015184152 -0.0075700333 
  355000    2.6422833  0.025142101    28372.625    161908.19 0.0029387614 0.0020376183 -0.007372682 
  356000    2.6609702  0.023697773    28372.625       162102 0.0039982606 8.4390832e-05 -0.0023132109 
  357000    2.6646282  0.023296584    28372.625    162256.07 0.0045717875 -0.0022051863 -0.0037901893 
  358000    2.6589556  0.024692901    28372.625    162459.94 -0.0015539894  -0.00103189 -0.0064188508 
  359000    2.6635635  0.023808375    28372.625    162640.01 -0.0010830092 -0.0041104736 -0.0012389321 
  360000    2.6650531  0.023688895    28372.625    162797.56 0.0007849004 -0.0042365673 -0.00099919429 
  361000    2.6488521  0.023488937    28372.625    162865.77 2.5165813e-05 -0.0034782525 -0.0012650581 
  362000    2.6506707  0.023363807    28372.625    162962.66 -0.00046019702 -0.0036171576 -0.0030228395 
  363000    2.6595923  0.023976996    28372.625    163144.71 0.0017505516 -0.002062955 -0.0024120117 
  364000    2.6518803  0.023415644    28372.625    163334.12 0.0053337747 -0.0037382664 0.0021185119 
  365000    2.6500156  0.024387377    28372.625    163482.51 0.0075374713 -0.0044898034 0.0020676795 
  366000    2.6518857  0.023504599    28372.625     163599.1   0.00429468 -0.0050277382 0.00043921002 
  367000    2.6531507  0.024193462    28372.625    163804.72 0.0055733341 -0.0020409763 -7.5180663e-05 
  368000    2.6630935   0.02369385    28372.625    164077.93 0.0049882597 -0.0051870698  0.003163454 
  369000    2.6557794   0.02331923    28372.625    164472.93 0.0063621283 -0.0051787445 0.0024812407 
  370000    2.6622846  0.024244293    28372.625    164947.12 0.0070674652 -0.0062458159 0.0024202855 
  371000    2.6605728  0.023282393    28372.625    165283.91 0.0089994262 -0.005507201 0.0002129919 
  372000    2.6575934  0.023383716    28372.625    165703.14 0.0095411862 -0.0077173241 -7.4852233e-05 
  373000    2.6677694  0.023244091    28372.625    166160.68  0.010826503 -0.0085010552 -0.0020725955 
  374000    2.6419765  0.024093486    28372.625     166597.7  0.018011025 -0.0097552635 -0.00097206295 
  375000    2.6452468  0.024096808    28372.625    167110.91  0.013215058 -0.0056310386 -0.0034271553 
  376000    2.6617703  0.023357728    28372.625    167544.41  0.014864465 -0.0055263972 -0.0044479599 
  377000    2.6408776  0.024841084    28372.625    168062.57 0.0085538525 -0.0037006873 0.0040907699 
  378000     2.650171  0.023338959    28372.625    168595.28 0.0062742527 0.0017680937 -0.0026154192 
  379000    2.6473892  0.023525095    28372.625    168926.83 0.0056489386  0.003643885 -0.003339592 
  380000    2.6546354   0.02407624    28372.625    169193.56  0.006357822 0.0015062825 -0.0056100339 
  381000    2.6617506  0.023842659    28372.625    169476.43 0.0023186918 -0.0028710242 -0.0054040038 
  382000     2.654093  0.024337436    28372.625    169795.96 -0.0028503092 -0.0065900106 -0.0096350731 
  383000    2.6603564  0.023621795    28372.625    170121.75 0.0032616478 -0.0030838972 -0.0033685323 
  384000    2.6521339  0.024241943    28372.625    170587.16 0.0040598093 -0.0039317907 -0.002580599 
  385000    2.6422866  0.025153573    28372.625    171222.99 0.0058928873 -0.0049601713 -0.0077103314 
  386000    2.6530876  0.023208905    28372.625    171918.29 0.0039510771 -0.0043871302 -0.0086246054 
  387000    2.6329108   0.02494506    28372.625    172617.12 -0.0048741337 -0.0052050111 -0.0059958192 
  388000    2.6561941  0.023503324    28372.625    173209.28 0.0043237289 -0.0024869894 -0.0049330709 
  389000    2.6570707  0.023484676    28372.625     173773.1 0.0041469005 -0.0021838087 -0.0066374341 
  390000    2.6712561  0.023979947    28372.625    174310.53 0.0044606473 -0.0057809036 -0.0045561815 
  391000    2.6610896  0.023769412    28372.625    174781.17  0.002941051 -0.0068722007 -0.0065535693 
  392000    2.6563069  0.024559105    28372.625    175318.86 0.0034090502 -0.004964128 -0.00051908195 
  393000     2.661425  0.023460829    28372.625    175926.08 0.0096177119 -0.005220507 0.00075190259 
  394000    2.6448944  0.023423834    28372.625    176493.47 0.0078120945 -0.0030597335 0.00015471556 
  395000    2.6515738  0.023805752    28372.625    177080.95 0.0047227013 0.0016666959  0.006128189 
  396000    2.6490879  0.024887388    28372.625    177798.73 0.0039985039 -0.0037075615 0.0042625663 
  397000    2.6584893  0.023221076    28372.625    178504.12 0.0037861521 -0.0017402258 0.0029019027 
  398000    2.6446677  0.023815767    28372.625    179252.67 0.0041491189 -0.0014625193 0.0055415535 
  399000    2.6443521  0.024710941    28372.625    179845.22  0.003410296 0.0019326823 0.0044493203 
  400000    2.6640688  0.024282806    28372.625    180277.88 0.0051429153 0.0042177368 -0.00034389001 
  401000    2.6491819  0.024268745    28372.625       180684  0.002382239 0.00047850595 0.0019751824 
  402000    2.6589183  0.023884228    28372.625    181086.59 0.0057779367 0.0040577329 0.0045249569 
  403000    2.6630467  0.023489629    28372.625    181407.84 0.0046748086 0.00010785947  0.003053439 
  404000    2.6641841  0.023603846    28372.625    181739.39 0.0058594588 0.0024259101 0.0021788051 
  405000    2.6505512  0.024793227    28372.625    182049.55 0.0070339273 -0.0020208283 0.0016904142 
  406000    2.6548806  0.023884938    28372.625    182440.54 0.0026932634 0.00069000919 0.0026985577 
  407000    2.6643511  0.024534564    28372.625    182888.02 0.0023842573 0.0040672053 0.0075496987 
  408000    2.6297464  0.025566071    28372.625    183438.35 0.0013599575 0.00050409828 0.0080472791 
  409000    2.6506054  0.023660668    28372.625     184020.5 -7.7530894e-05 0.0024859663 0.0044678095 
  410000     2.656689  0.023571501    28372.625    184486.56 0.0019658032 0.0012870581 0.0028344369 
  411000    2.6616076  0.024244162    28372.625    184835.79 -0.0028743161 0.0060653349 0.0029578738 
  412000    2.6639054   0.02359747    28372.625    185205.68 -0.0033051953 0.0040394222  0.004753902 
  413000     2.653021  0.023917282    28372.625    185593.28 -0.0041168535 0.0048580416 0.0037499305 
  414000    2.6566851  0.024650526    28372.625    185946.64 -0.0043382234  0.003139704 0.0039503227 
  415000    2.6494238  0.023396186    28372.625    186339.88 -9.4692648e-06 0.00024149328 7.7294618e-05 
  416000    2.6557878   0.02380348    28372.625    186768.94 7.8168444e-05 -0.0010835646 -0.0013662778 
  417000    2.6475483  0.023416615    28372.625    187268.29 0.0040135426 -0.002238542 -0.0010866054 
  418000    2.6557093  0.023397653    28372.625    187795.59 0.0050507109 -0.0058166411 -0.0024686282 
  419000    2.6638439  0.023585444    28372.625    188467.06 0.0037431189 -0.0071173151 -0.00039425462 
  420000    2.6608057  0.023640201    28372.625    189176.44 0.0015899118   -0.0049853 -0.0037156357 
  421000    2.6446732  0.023382294    28372.625    189809.99 0.0032416428 -0.0042841652 -0.0020385207 
  422000    2.6575599  0.023621929    28372.625     190446.7 0.0061746903 -0.0047963083 -0.0010331796 
  423000    2.6537259  0.023783369    28372.625    191046.58  0.005824847 -0.00089237302 -0.00034136548 
  424000    2.6596686  0.024260217    28372.625    191705.18 0.0058773061 0.0034987158 0.00070626903 
  425000    2.6606326  0.023659991    28372.625    192314.77 0.0074223258 0.0027374776 0.0030492934 
  426000    2.6523275  0.024194797    28372.625    192841.97  0.009609007 -0.00088008424 0.0025415165 
  427000    2.6545171  0.024914502    28372.625    193433.29 0.0070069609 -0.0012822004 0.0004478783 
  428000    2.6688104  0.023645143    28372.625    194090.47 0.0045966224 0.00018480483 -0.00099830374 
  429000    2.6492613  0.023551169    28372.625    194657.52 0.0030844532 0.0035892791 -0.00011795809 
  430000    2.6507104   0.02387597    28372.625    195194.15 -0.00025193268 0.0071408674 -0.0024469051 
  431000      2.66303  0.024294717    28372.625    195722.89 0.0026752802 0.0044175154 -0.0012266986 
  432000    2.6636694  0.023844576    28372.625    196259.15 0.00032485308 0.0044961494 -0.00097155097 
  433000    2.6668413  0.023402759    28372.625    196873.24 0.0025020397 0.0051887842 -0.001368468 
  434000    2.6406186  0.023333245    28372.625    197465.54 0.0012604241 0.0039455985 -0.0030253125 
  435000    2.6571438  0.023558325    28372.625    198082.76 0.0032432819 0.0040275494 -0.0040678549 
  436000    2.6624879  0.023352983    28372.625     198690.7 0.0023457392 0.0031087058 -0.0054122098 
  437000    2.6492691  0.023313232    28372.625    199270.25 0.00095659876 -1.7851444e-05 -0.0040535485 
  438000    2.6481851   0.02395972    28372.625    199773.64 0.0018633871 -0.0027228359 -0.00056477883 
  439000    2.6654666  0.023416831    28372.625    200125.22 0.0011499977 -0.0015991628 -0.0020115692 
  440000    2.6534926   0.02551585    28372.625    200443.47 0.0028092285 0.00070626891 -0.0022493619 
  441000    2.6550107  0.023531558    28372.625    200913.41 -0.0034042714 -0.0025082006 -0.00035319362 
  442000    2.6234368  0.025466509    28372.625    201418.94 -0.0040741996 -0.00029473744 0.0024967098 
  443000    2.6560818   0.02343687    28372.625    201802.58 -0.0028193637 0.00038441091 7.3188317e-05 
  444000    2.6621396  0.023191931    28372.625    202160.73 -0.0021668206 0.0012540516 -0.00021355325 
  445000     2.663108  0.023774426    28372.625    202549.31 -0.005348039  0.002223761 -0.0033150704 
  446000    2.6646644   0.02324009    28372.625    202921.34 -0.0044960039 0.0018824991 -0.0047103028 
  447000    2.6667103  0.023462456    28372.625    203331.36 -0.0044863515 0.00061954519 -0.0047853448 
  448000    2.6581415  0.024290928    28372.625    203764.81 -0.0053200029 0.00098952931 -0.0035530119 
  449000    2.6729022  0.024197656    28372.625    204260.78 -0.0052993465  0.001950496 -0.00089552759 
  450000    2.6652597   0.02396152    28372.625    204756.56 -0.0068991006 0.00092155649 -0.0026681677 
  451000    2.6412269  0.025757936    28372.625    205289.43 -0.0068954768 -0.00073081423 -0.00013219319 
  452000    2.6584307   0.02384549    28372.625    205794.62 -0.008308892 -0.00062390577 -0.0041084765 
  453000    2.6493924  0.023201471    28372.625    206323.56 -0.0072335974 7.0067131e-05 -0.0029796846 
  454000    2.6537926  0.023913655    28372.625    206754.41 -0.0081993609 0.0011008673 -0.0018880739 
  455000    2.6520771  0.023456531    28372.625    207290.18 -0.0061790301 -0.0019865097 -0.0010843377 
  456000    2.6582138  0.024000602    28372.625     208015.7 -0.0067265381 -0.0010927216 -0.0010223562 
  457000    2.6658951  0.024051583    28372.625    208672.49 -0.005997637 -0.0041328186 -0.0033626748 
  458000    2.6647344  0.023825853    28372.625    209264.85  0.001516454 -0.00070648321 9.3934103e-05 
  459000     2.674881  0.024334095    28372.625       209708 -0.00043906559 0.0050867751 0.00033549951 
  460000    2.6571147  0.023250367    28372.625    210071.57 -1.7945954e-05 0.0044012372 -0.00083879843 
  461000    2.6574527  0.024741865    28372.625       210377 -0.0021196712 0.0041909081 0.0017645849 
  462000    2.6686925  0.023826068    28372.625    210736.65 -0.00090543408  0.004968117 0.0014215511 
  463000    2.6653363  0.023432544    28372.625    211138.11 -0.0030707136 0.0049473254 -0.0014295107 
  464000    2.6781004   0.02331445    28372.625    211450.08 -0.0010104155 0.0044607044 -0.00073564894 
  465000    2.6586594  0.024449513    28372.625     211670.7 0.0020273184 0.0054439493 -0.0014444107 
  466000    2.6762991  0.023207338    28372.625    211822.58 0.0011073087 0.0070900332 -0.0030502516 
  467000    2.6601151   0.02369295    28372.625    212034.15 0.0041128324 0.0064237362 -0.0084890015 
  468000    2.6647369  0.023203081    28372.625    212280.32 0.0069286199 0.0052092619 -0.0071464992 
  469000    2.6508458  0.024911829    28372.625    212628.76 0.0053862705 0.0087981194 -0.006351982 
  470000    2.6629865  0.023307332    28372.625    213039.49  0.002840239 0.0073753851 -0.003834238 
  471000    2.6539575  0.023429144    28372.625    213544.39 0.0012304355 0.0070474221 -0.0031166581 
  472000    2.6597084  0.023464764    28372.625    213926.56 0.0020669695 0.0058826813 -0.00039800835 
  473000    2.6490426   0.02442412    28372.625    214230.66 0.00072314383 0.0031335882 0.0011043475 
  474000    2.6390069  0.023988365    28372.625    214508.55 0.0037744693 0.0061553737 0.0015176802 
  475000    2.6536609  0.023881856    28372.625       214778  0.004722929 0.0021776164 0.0030582395 
  476000    2.6645241  0.023418787    28372.625    215044.17 0.0052780633 0.0018041563  0.001369367 
  477000    2.6581916  0.024216125    28372.625    215223.12 0.0044418669 -0.0013948543 0.0061371485 
  478000    2.6524999   0.02361107    28372.625    215551.66 0.0034885961 -0.00026380106 0.00095780545 
  479000    2.6436089   0.02420493    28372.625    215946.67 0.0063940203 0.0008063248 0.0031860078 
  480000    2.6645783  0.024148406    28372.625     216444.7 0.0060295396 0.0042172925 0.0027547229 
  481000    2.6582993  0.023523233    28372.625    217006.51 0.0015829219 0.0013800694  0.004421303 
  482000    2.6613568  0.023240832    28372.625    217581.15 0.0021349753 0.0012290569 0.0022305116 
  483000      2.65159  0.023560317    28372.625    218033.28 0.0029958339 0.0011903734 0.0018085862 
  484000    2.6518382  0.023606026    28372.625    218355.54 0.0035728245 0.0051435823 0.0010314501 
  485000     2.649201  0.024221558    28372.625    218720.38 0.0039339367 0.0015532974 0.0010622188 
  486000    2.6412212  0.025428746    28372.625    219082.52 0.0014876109 0.0051192924 -0.0014758372 
  487000    2.6550764  0.023833126    28372.625     219438.5 0.0016727231 0.0037723055 -0.0025678633 
  488000    2.6621893  0.023103352    28372.625    219839.16  0.004640657 0.0046023622 0.0010961617 
  489000    2.6487993  0.023932592    28372.625    220161.22 0.0024224544  0.002027258 0.0018613648 
  490000    2.6564449  0.023442465    28372.625    220472.81 0.0023065042 0.0013659201 0.00047489224 
  491000    2.6596503  0.023696903    28372.625    220771.06 0.0011036176 0.0025794343 -0.0021757552 
  492000    2.6519455  0.023571977    28372.625    221001.03 0.0015207824 0.0026473409 -0.00091410354 
  493000    2.6557132   0.02364583    28372.625    221168.99 0.00066363479 0.0035511565 -0.0014808949 
  494000    2.6591811  0.023951431    28372.625    221319.72 0.0048338089 0.0049458089 -0.0036453801 
  495000    2.6745937    0.0238198    28372.625    221484.53 0.0029033019 0.0019154324 -0.0012243412 
  496000    2.6628362  0.023531755    28372.625     221526.5  0.004051757 0.0007139775 -0.0005404081 
  497000    2.6451093   0.02569207    28372.625    221543.04 0.0059836737 -0.0015572258 0.0022627499 
  498000    2.6601189  0.023326196    28372.625    221717.39  0.003336709 0.00031901239 -0.00053742608 
  499000    2.6426086  0.024182933    28372.625    222068.56 0.0048064634 0.0020780676 -0.0026646201 
  500000    2.6501524  0.023512741    28372.625    222452.81 0.0033941123 -0.0024972226 -0.00059362492 
  501000    2.6622078  0.024282368    28372.625    222893.39 0.0017984454 -0.0047077991 -0.0005855248 
  502000     2.650049  0.024501033    28372.625    223371.61 0.0028996187 -0.0038512963 0.0018769873 
  503000    2.6678376  0.023574603    28372.625    223837.56 -0.00093231748 -0.0051381056 0.00062835946 
  504000    2.6514586  0.024201849    28372.625    224243.19 0.00089964668 -0.0045172095 -0.0035402249 
  505000    2.6553322  0.024224954    28372.625     224465.8 -0.0015315891 -0.0040860888 -0.0040095564 
  506000    2.6729599  0.023392371    28372.625    224720.14 -0.0016047576 -0.0051477887 -0.0020911195 
  507000    2.6340638  0.024694311    28372.625    224979.39 -0.0062993533 -0.0075283617 -0.0021094104 
  508000    2.6657272  0.023366489    28372.625    225186.93 -0.0048528121 -0.0051707787 0.0010929962 
  509000    2.6526397  0.023986764    28372.625    225290.63 -0.0034130851 -0.0060738357 -0.00010653328 
  510000     2.634662  0.025031641    28372.625    225409.38  0.001121384 -0.0094273981 -0.0064326533 
  511000    2.6424552   0.02340797    28372.625    225653.12 0.00055652321 -0.001588556  0.001432561 
  512000    2.6520487   0.02477877    28372.625     225929.3 -0.0026802072 -0.0031113712 0.0023328375 
  513000    2.6529435  0.023851951    28372.625    226113.47 -0.00090049579 -0.0056028566 0.0010500214 
  514000    2.6529493   0.02369158    28372.625     226272.5 0.0020034417 -0.0072455821 -0.0014056465 
  515000    2.6591179  0.024214109    28372.625    226526.13 -0.0012230497 -0.0036008561 0.00099101441 
  516000    2.6607665  0.024250605    28372.625    226761.02 -0.001801669 -0.0019226221 -0.00038159898 
  517000    2.6565911  0.023740919    28372.625    226929.98 0.0015733914 -0.0004537691 -0.001468391 
  518000    2.6542166  0.023462647    28372.625    227097.07 0.00040092841 0.00090329595 -0.0032448805 
  519000    2.6728357  0.023412148    28372.625    227328.94 -0.0034388505 -0.00051624614 -0.0037745132 
  520000     2.657949  0.023474088    28372.625    227536.75 -0.00062017318 0.00044545294 -0.0052834836 
  521000    2.6625865  0.024136008    28372.625     227857.5 0.0023810847 0.0024228314 -0.0031128713 
  522000    2.6605575  0.023858269    28372.625    228323.25 -0.0015441869 -0.00057125488  -0.00674165 
  523000    2.6625419  0.023583382    28372.625    228810.26 -0.0022041096 -0.0032504045 -0.0019759401 
  524000    2.6624439  0.023727338    28372.625    229328.94 -0.0027219749 -0.0015287238 -0.0052758942 
  525000    2.6384048  0.025025104    28372.625     229862.8 -0.00080549781 -0.0020989182 -0.0099017146 
  526000    2.6549587  0.024749294    28372.625    230592.24 -0.0047122694 0.0010505062 -0.0059149187 
  527000    2.6638928  0.023746429    28372.625    231253.34 -0.0030146554 0.0015361425 -0.0063370029 
  528000    2.6601565  0.023868824    28372.625    231973.48 -0.0011337051 0.00066125854 -0.0036236943 
  529000    2.6513163  0.024384514    28372.625    232659.19 -0.0047626314 -0.00042134059 -0.0026415024 
  530000    2.6692294  0.023317563    28372.625    233264.96 -0.0042017078 -0.0044126257  0.001419765 
  531000    2.6575697  0.023478342    28372.625    233843.92 -0.004585699 -0.0030866266 0.0056526443 
  532000    2.6523199  0.023731879    28372.625    234494.06 -0.0044038208 -0.00031116313 0.0057353959 
  533000    2.6547902  0.023210982    28372.625     235217.2 -0.006490446 0.00081130858 0.0051476707 
  534000    2.6566839  0.023623685    28372.625    235817.76 -0.0062644465 0.0017514169 0.0040343026 
  535000    2.6540764  0.024121519    28372.625    236342.57 -0.005053532 0.0012481333 0.0037555716 
  536000    2.6433144  0.023760905    28372.625    236784.74 -0.0055236522 0.0052581398 0.0078180949 
  537000    2.6547135  0.023238908    28372.625    237245.78 -0.0048224768 0.0035003635 0.0070290304 
  538000    2.6486999  0.023920758    28372.625    237774.41 -0.007369742 -0.00055667327 0.0063688397 
  539000    2.6264631  0.026712257    28372.625    238340.11 -0.012770404 -0.0023985003  0.012384793 
  540000    2.6581034  0.023858472    28372.625    239039.67 -0.0036664725 0.00018060927 0.0040771451 
  541000    2.6659434  0.023305168    28372.625    239783.82 -0.0050861301 -8.2469369e-05 0.0061338734 
  542000    2.6355012  0.025114409    28372.625    240434.05 -0.012846029 -0.0039357592 0.0032590364 
  543000    2.6595223  0.023564606    28372.625    241068.86 -0.0081110324 0.00040138206  0.001317278 
  544000     2.662182  0.023528809    28372.625    241617.12 -0.0050782948 0.0012084233 0.0056361359 
  545000    2.6463972  0.023879088    28372.625    242145.84 -0.005613068 0.0024344203 0.0047727058 
  546000    2.6562991  0.023884071    28372.625    242659.21 -0.0037066471 -0.0035805649  0.007503671 
  547000     2.638788  0.024949896    28372.625     243166.9 -0.0031548222 -0.0032351173 0.0070932133 
  548000    2.6564299  0.024083177    28372.625    243703.64 -0.0057143691 -0.0033443975 0.0089569443 
  549000    2.6539004  0.023205528    28372.625    244278.77 -0.0026895437 -0.0022862031  0.010433041 
  550000    2.6539648  0.023325887    28372.625    244781.44 -0.0021169088 -0.00031271343   0.01217445 
  551000    2.6572887  0.023439126    28372.625    245321.07 -0.0034111791 5.6625113e-05 0.0085249954 
  552000    2.6531708  0.023870658    28372.625    245842.51 -0.0057006321 -0.0022666743 0.0084432341 
  553000    2.6472513  0.023833057    28372.625    246307.04 -0.0052696384 -0.0030339964  0.011609185 
  554000    2.6508525  0.025021611    28372.625     246756.5 -0.0046776861 -0.0013887169 0.0080527584 
  555000    2.6520201  0.023931845    28372.625    247231.34 0.00071080419 -0.00088424313 0.0033720667 
  556000    2.6462032  0.024276093    28372.625    247800.63 -0.0012217543 -0.0038291778   0.00230183 
  557000    2.6700552  0.024269734    28372.625    248318.33 -0.00066535043 -0.0041744424 0.0020701192 
  558000    2.6553029  0.023211385    28372.625    248838.81 -0.00078358131 -0.0040211323 -0.0010258442 
  559000    2.6531421  0.023478208    28372.625    249370.96 0.00032994172 -0.0074503744 0.00084569301 
  560000     2.656943  0.023597376    28372.625    249800.34 -0.0040928144 -0.0022601315 0.0033273935 
  561000    2.6580346  0.023548517    28372.625    250118.66 -0.0081198751 -0.0019096191 0.0060103397 
  562000    2.6510643  0.024057326    28372.625    250404.18 -0.0083715908 -0.00023711182 0.0061311929 
  563000     2.657911  0.024557995    28372.625     250722.1 -0.0061684585  0.003560385 0.0031205972 
  564000    2.6419701   0.02348798    28372.625    251026.05 -0.0090478414 0.0034893577 0.0031039911 
  565000    2.6530085  0.023235709    28372.625    251345.13 -0.0065416548 0.0012005467 -0.00050898585 
  566000    2.6570884  0.023826467    28372.625    251654.66 -0.0076485737 0.0024596864 5.5350891e-05 
  567000    2.6674108  0.023381026    28372.625    251908.41 -0.0086264749 0.0023822652 0.0015741336 
  568000    2.6523814  0.023470534    28372.625     252186.8 -0.0088936596 0.0010038792 -0.00085144486 
  569000    2.6461972  0.023323068    28372.625    252476.29 -0.0083213789 0.0016997303 -0.0010043307 
  570000    2.6635048  0.023786536    28372.625    252850.57 -0.0079380172 0.0032763305 -0.001285249 
  571000    2.6605097  0.023747823    28372.625    253158.98 -0.0033164578 0.0067139848 -0.004342445 
  572000    2.6526357  0.023708778    28372.625    253411.94 -0.0010448977 0.0053130815 -0.003209706 
  573000     2.667454  0.023720526    28372.625    253598.39 -0.00086287134 0.0051310113 -0.0034106154 
  574000    2.6548395  0.023826436    28372.625    253904.13 -0.001870229 0.0046436228 -0.0011099188 
  575000    2.6619136  0.023636028    28372.625    254338.91 0.00055156661 0.0049901715 -0.0017219194 
  576000    2.6599435  0.024303554    28372.625    254823.88 0.0017362397 0.0041691083 -0.00097949532 
  577000    2.6507854  0.023550167    28372.625    255362.32 0.00099439552 0.0047462342 0.00065243209 
  578000    2.6531463  0.023775392    28372.625    255876.51 -0.0017078719 0.0025884817 -0.0004884414 
  579000    2.6532759   0.02335942    28372.625    256402.26 -0.0024966618 0.0045073076 -7.0583276e-05 
  580000     2.650065  0.024041841    28372.625    256867.76 -0.00036965411 0.0044200488 -0.00071487701 
  581000    2.6533231  0.023465612    28372.625    257333.02 -0.00061061941 0.0067460872 -0.00075152036 
  582000    2.6470401  0.024672515    28372.625    257917.35 0.0054694073 0.0071639932 -0.0059686765 
  583000    2.6513175   0.02423135    28372.625    258476.91 0.00065219697 0.0046776205 -0.0015338285 
  584000    2.6571601  0.024241826    28372.625    259045.55 0.0035345551 0.0014109688 -0.00068161827 
  585000    2.6539045  0.023808129    28372.625    259700.08 0.0004564352 0.0041442007 -0.0032145221 
  586000    2.6391033  0.024009779    28372.625     260539.5 -3.9370263e-05 0.0058989503 -0.0041429544 
  587000    2.6644703  0.023487046    28372.625    261392.98 -0.00060510253 0.0059126822 -0.0017437843 
  588000    2.6666153  0.023362855    28372.625    262213.98 0.0012306646 0.0040356764 -0.0023270115 
  589000    2.6549995  0.023642426    28372.625     262817.3 0.00088648328 0.0062340219 -0.0013684325 
  590000    2.6588564  0.024014473    28372.625    263349.61 0.0015962667  0.006367431 -0.0020815027 
  591000    2.6627861  0.023866572    28372.625    263978.11 0.0023976036 0.0086090626  -0.00144944 
  592000    2.6523685    0.0242892    28372.625    264720.19 -0.0047822114 0.0094686303 -0.0077318281 
  593000    2.6663447  0.023522923    28372.625    265464.53 0.0026351864 0.0098555136 0.00015051261 
  594000    2.6418909  0.024839538    28372.625    266094.87 0.0086181269 0.0096302927 -0.0013734352 
  595000    2.6615342  0.023231533    28372.625    266583.31 0.0086097816  0.008459692 -0.0010104161 
  596000    2.6620653  0.024553822    28372.625    267107.26 0.0056640197 0.0086134279 0.0012998041 
  597000    2.6577144  0.023810956    28372.625    267760.07 0.0059986801 0.0063085601 -0.0010111353 
  598000     2.648935  0.023406686    28372.625    268559.44 0.0060967474 0.0066052399 1.2755544e-05 
  599000    2.6561059  0.023413836    28372.625    269271.64 0.0058093223 0.0052227777 0.00069937533 
  600000    2.6572586  0.024340558    28372.625    269909.98 0.0037440634  0.003589428 0.0031319734 
  601000    2.6656288  0.023857915    28372.625    270360.51 0.0039894639 0.0026124798 -0.0022008753 
  602000    2.6379638  0.024640413    28372.625    270800.14 0.0059580735 -0.00092524597 -0.0041708491 
  603000    2.6537885  0.024583651    28372.625    271215.34 0.0029707152 0.0059613362 -0.003686346 
  604000    2.6548425  0.023863829    28372.625    271650.07 0.0041129732 0.0050512028 -0.0028745796 
  605000    2.6577548  0.023807634    28372.625    272201.35 0.0047630423 0.0066215885 -0.0012351923 
  606000    2.6680154  0.024216063    28372.625    272681.32 0.0045143166 0.0048958015 0.00072102141 
  607000     2.655266  0.024058621    28372.625    273068.19 0.0015485773 -0.00020090411 0.0038288772 
  608000    2.6427146  0.025255119    28372.625       273270 -0.00031332684 -0.0011749469 0.0077584301 
  609000    2.6551244  0.023524877    28372.625    273474.18 -0.00053671954 0.00022103604 0.0056063916 
  610000    2.6519619  0.024142529    28372.625    273777.03 0.0012987267 -0.0010255171  0.005482958 
  611000    2.6551433  0.023451729    28372.625    274320.44 0.0013890794 -0.0019411739 0.0062301548 
  612000    2.6593113   0.02379959    28372.625    274952.12 0.0025873035 -0.00037815983 0.0052437346 
  613000     2.650384   0.02436984    28372.625    275610.17 0.00092702479 -0.0021830647 0.0066666791 
  614000    2.6519407  0.023580924    28372.625    276123.51 0.0037123616 -0.00058740106 0.0051890158 
  615000    2.6532585  0.023302903    28372.625    276469.94 0.0029570425  0.003325517  0.003452808 
  616000    2.6552799  0.024361755    28372.625    276883.54 0.0025586373 0.0041189269 -0.0013174708 
  617000     2.668557  0.023294985    28372.625    277548.17 0.00011312293 0.00098533095 -0.00065318874 
  618000    2.6496815  0.024409471    28372.625    278222.86 0.00024988985 0.0010968221 -0.00069155993 
  619000    2.6589748  0.023468104    28372.625    278883.57 -0.0039028124 0.00072814188 -0.0016279198 
  620000    2.6643918   0.02331305    28372.625    279438.34 -0.001376227 0.0034281921 -0.00099085958 
  621000    2.6529127  0.024147005    28372.625    279979.98 -0.00059160524 0.0023393694 0.00070494661 
  622000    2.6551766  0.023247539    28372.625     280446.3 -0.0028433875 0.0019819207 -0.00083978142 
  623000    2.6506153  0.023584268    28372.625    280901.69 -0.0023132838 -0.0022742537 -0.0022377378 
  624000    2.6543007  0.023623854    28372.625     281421.1 -0.0029412498 -0.00024389627 -0.0010093741 
  625000     2.651916  0.023434995    28372.625    282073.11 -0.0059099766 -0.0026152636 -0.00039385224 
  626000    2.6588585  0.023274815    28372.625    282614.96 -0.0049107582 -0.0019582713 0.00062003162 
  627000    2.6636846  0.023423572    28372.625    283234.42 -0.0032013789  0.001547401 0.0035723403 
  628000    2.6566877  0.023761948    28372.625    283895.66 -0.0046164135 0.0023460701 0.0049822867 
  629000    2.6484405  0.023240868    28372.625    284665.73 -0.0053081603 0.00088315451 0.0037848331 
  630000    2.6721571  0.023625301    28372.625    285372.19 -0.0047397736 0.00073203772 0.0040056645 
  631000    2.6515215   0.02443506    28372.625    286099.55 -0.0055150353 -0.0029910944 0.0028362666 
  632000    2.6426651  0.024661411    28372.625    286869.46 -0.0047279671 -0.00096437284 0.00067325208 
  633000    2.6514005  0.023326579    28372.625    287582.65 -0.0035675048 -0.00066235131 -9.1594043e-05 
  634000    2.6598721   0.02359721    28372.625    288354.99 -0.0025524854 0.0009538541 0.0016086989 
  635000    2.6545269  0.023833562    28372.625    289049.01 -0.0038788507 0.0013470614 0.00079831341 
  636000    2.6481575  0.024576032    28372.625    289725.71 -0.0054687484 0.0022624669 0.0022833892 
  637000    2.6602124  0.023495196    28372.625     290331.1 -0.0018332649  0.002799472 0.0019595121 
  638000    2.6655521  0.023387044    28372.625    291002.51  -0.00278612 0.0024410852 0.0021101673 
  639000    2.6738248  0.024564555    28372.625    291753.64 -0.00093028658 0.0037497006 0.0010419551 
  640000    2.6723391  0.023209388    28372.625    292457.94 -0.00063468982 0.0018177635 -0.00089331143 
  641000     2.659515  0.023233128    28372.625       293194 -0.00052675825 8.9154718e-05 0.00020817603 
  642000    2.6607521  0.023947489    28372.625    294035.42 0.0020307358 0.0010327064 -0.0032625664 
  643000    2.6502018  0.023506594    28372.625    294927.25  0.001459573 -0.0012341446 -0.0032422356 
  644000    2.6577873  0.023706338    28372.625    295843.57 -5.6184078e-05 0.00013698303 -0.0029467109 
  645000    2.6589407  0.023694827    28372.625    296437.96 0.00051564758 -0.00087544628 -0.0050159667 
  646000    2.6507098  0.023559432    28372.625    297050.52 0.0030029069 -0.00074882449 -0.0044782182 
  647000    2.6515636  0.024070796    28372.625    297678.63 0.0020264829 -0.0034106519 -0.0063144706 
  648000      2.65166  0.023671071    28372.625    298339.68 0.0023391811 -0.0043153422 -0.0061835029 
  649000    2.6432084  0.025041252    28372.625    298983.63 0.0018483799 6.7862861e-05 -0.004382411 
  650000     2.655768   0.02352352    28372.625    299633.07 -0.00053448883 0.0012701477 -0.0038626563 
  651000    2.6487779  0.024324283    28372.625    300245.71 0.00088930985 0.00051611109 -0.002016496 
  652000    2.6529219  0.023322574    28372.625    300842.69 0.0039481311 -0.00058925075 -0.0035961714 
  653000     2.648738  0.023430695    28372.625    301516.57 0.0046309155 6.8989445e-05 -0.0024566869 
  654000    2.6509235  0.023223452    28372.625    302226.97 0.0039536384 0.0019608556 -0.002438221 
  655000    2.6676097   0.02332539    28372.625    302905.14 0.0034671998 0.0015360182 -0.0030775641 
  656000    2.6548375  0.023787896    28372.625    303532.05 0.0056829582 0.0013107261 0.00092017727 
  657000    2.6518976   0.02345692    28372.625    304237.38 0.0036469501 0.0037794481 0.0016016828 
  658000    2.6723128  0.023738012    28372.625    304985.18 0.0044102524 0.0010447574 0.00071594711 
  659000    2.6560033   0.02384423    28372.625    305700.18 0.0034043532 -0.002342094 -0.0014685705 
  660000    2.6505162  0.023359458    28372.625    306375.02 0.0032384565 -0.0028613543 -0.0023940967 
  661000    2.6606832   0.02311574    28372.625    306906.16 0.0055108194 0.0012408185 -0.0025285631 
  662000    2.6641311  0.024263882    28372.625    307431.09 0.0076699015 0.0075509256 -0.00050605544 
  663000    2.6625596  0.023238365    28372.625    307999.09 0.0042663796 0.0035785668 -0.0019270715 
  664000    2.6451874  0.023799737    28372.625    308581.07 0.0049832945 0.00028951368 -0.0011876782 
  665000     2.647417  0.024365853    28372.625     309261.6  0.004922568  0.002516522 0.00038722736 
  666000    2.6441625   0.02461413    28372.625     310122.9 0.0076938659 0.0045785826 -0.0019897079 
  667000    2.6581057  0.023484609    28372.625    310939.92 0.0065917204 0.0046200276 -0.0041448521 
  668000    2.6535598  0.024795718    28372.625    311734.75 0.0068804507 0.00018648321 -0.0046904769 
  669000    2.6589637  0.023862216    28372.625    312443.44 0.0026294172 0.0019877331 -0.0024060848 
  670000    2.6562135  0.023597299    28372.625    313097.98 0.00084577487 1.9868877e-05 -0.0010974388 
  671000    2.6483266   0.02327185    28372.625    313852.68 0.0040931859 0.00047480307 -0.0024745863 
  672000    2.6607176  0.024366808    28372.625    314481.97 0.0043580359 -9.6777606e-05 -0.0029106807 
  673000    2.6482621  0.023978388    28372.625    315199.63  0.003443423 0.0002013769 -0.001822132 
  674000    2.6630959  0.023138013    28372.625    315981.95 0.0035901708 -0.00021779398 -0.002418436 
  675000    2.6544084  0.024174474    28372.625    316825.61 0.0038410128 -0.0011810904 -0.0018987362 
  676000    2.6514607  0.024234676    28372.625    317765.45 0.0050172878 -0.00073992441 -0.00083580582 
  677000    2.6515457  0.024891933    28372.625    318654.87 0.0034920407 0.0001608843 -0.0014517302 
  678000       2.6619  0.023189792    28372.625    319432.21 -0.0022000058 0.0013656126 -0.0019937983 
  679000    2.6466849  0.023924413    28372.625    320351.75 -0.0015834771 0.0017948916 0.00039995736 
  680000    2.6475876  0.024105221    28372.625    321287.92 -0.0018224528 -7.5464203e-06 -0.0017567183 
  681000    2.6509486  0.023368432    28372.625    322099.75 -0.004014475 3.2460218e-05 0.0013940964 
  682000    2.6525508  0.024221625    28372.625    322843.32 -0.0035834347   0.00302289 0.0013788816 
  683000    2.6523805  0.023405341    28372.625    323373.36 0.00093275221 -0.0021202766 -0.0023377625 
  684000     2.654581  0.023541548    28372.625    323855.64 0.0014442607 -0.0011847189 -0.0011035216 
  685000    2.6574903  0.023601014    28372.625    324377.51 -0.002301798 -0.00053020651 -0.00046648594 
  686000    2.6507998  0.024382401    28372.625     324886.3 -0.005976104 -0.001283688 -0.0023184876 
  687000    2.6494044  0.024716746    28372.625    325307.97 0.0011212771 -0.00026662808 0.00050623864 
  688000    2.6554148  0.023547847    28372.625    325732.86 9.7013085e-05 0.00030989742 0.0003088469 
  689000    2.6619786  0.023773667    28372.625    326298.73 -0.0015376614 -0.00076366705 0.00093036285 
  690000    2.6611882   0.02341957    28372.625    326944.31 -0.0022677497 0.00028923018 0.00026142721 
  691000    2.6489105   0.02427268    28372.625    327557.16 -0.0012405465  0.001171738 0.0023312207 
  692000    2.6590189  0.023358437    28372.625     328205.2 -0.00089714385 0.0060847956 0.00063843104 
  693000    2.6567214  0.023522631    28372.625     328689.7 -0.0023206164 0.0056060635 0.00053508429 
  694000    2.6662365  0.023335522    28372.625    329174.87 -0.0044441749 0.0043856297 -9.6103206e-05 
  695000    2.6647723  0.023300599    28372.625    329822.27 -0.004468141 0.0061134978 0.0013405977 
  696000    2.6621811  0.023227977    28372.625    330494.76 -0.0037034457  0.003795229 0.0013140733 
  697000    2.6664771  0.023582311    28372.625    331247.72 -0.0046716868 0.0048219752 0.0019302915 
  698000    2.6570762  0.023778162    28372.625     331999.9 -0.0038380835 0.0066094081 -0.001271217 
  699000    2.6467112  0.024529792    28372.625    332865.29 -0.0068939455 0.0067568928 0.0029143742 
  700000     2.658567  0.023545861    28372.625    333801.07 -0.0061464059 0.0056995718 -0.0019189573 
  701000    2.6519311  0.025019348    28372.625    334703.92 -0.0033606193  0.007842692 0.0010203189 
  702000    2.6605016  0.023384476    28372.625    335605.67 -0.0079874241 0.0092659449 -0.00069973625 
  703000    2.6605096  0.023426468    28372.625    336520.92 -0.008931531 0.0047420883 -0.0015055342 
  704000    2.6532684  0.023656732    28372.625    337368.87 -0.0070903453 0.0056926687 -0.0038593838 
  705000     2.666796  0.023950586    28372.625    338275.97 -0.0048271433 0.0058760076 -0.0036096619 
  706000    2.6519406  0.025039395    28372.625    339073.05 -0.0047076665  0.011278819 -0.00021818185 
  707000    2.6544741  0.024037064    28372.625    339743.96 -0.0025738946 0.0045973625 -7.7035683e-05 
  708000    2.6713987  0.023423854    28372.625    340360.79 -0.0027370729 0.0075554035 -0.0010567673 
  709000     2.665606  0.023567708    28372.625    341061.82 -0.0058218197 0.0013952729 0.00060562617 
  710000    2.6597342  0.023443792    28372.625    341597.43 -0.0058116382 -0.00037238932 0.0023701374 
  711000    2.6531061  0.023234017    28372.625    342273.85 -0.0055642598 -0.0005489293 0.0048602696 
  712000    2.6610098  0.023715341    28372.625    343007.51 -0.0034775725 -0.002622148 0.0041678965 
  713000    2.6454146  0.024111327    28372.625    343621.24 0.00052412968 -0.0036360244 0.0016761191 
  714000    2.6647504  0.023533353    28372.625    344223.98 -0.00094429688 -0.0036613427 -0.00021113116 
  715000    2.6731669  0.023715174    28372.625    344903.19 -0.003774552 -0.0023677257 0.0017036028 
  716000     2.646134  0.024192963    28372.625    345429.14 -0.0044819364 -0.0011131763 -0.00075075453 
  717000    2.6553647  0.023736804    28372.625    345994.27 -0.0033325144 -0.00088090278 -0.0029209157 
  718000    2.6522225  0.024141064    28372.625    346596.68 -0.0059094674 -0.00095357906 -0.0054995698 
  719000    2.6422974  0.024105738    28372.625    347146.51 -0.0014349518 -0.0019555078 -0.0047376816 
  720000    2.6404802  0.025275573    28372.625    347798.39 -0.001187639 -0.00096474343 -0.0045418979 
  721000    2.6570141  0.023252098    28372.625    348553.93 -0.0021105723 -0.00079723632 -0.0070884761 
  722000    2.6610322  0.023306767    28372.625    349120.65 -0.0021626405 -0.00095161268 -0.0057454138 
  723000    2.6458591  0.025015212    28372.625    349781.31 -0.0041116542 -0.0010430891 -0.0086896487 
  724000    2.6555982  0.023454209    28372.625    350561.48 -0.0031098976 0.00026716357 -0.0070947183 
  725000    2.6568928  0.023558652    28372.625    351334.52 -0.00054909059 -0.0025369259 -0.0060171281 
  726000    2.6493229  0.024223897    28372.625    352143.85 0.0010306376 0.0011376313 -0.012007692 
  727000    2.6601363  0.024434552    28372.625    353133.91 0.00022216197 -0.0035664487 -0.010988189 
  728000    2.6293007  0.025775808    28372.625    354139.86 0.0033259097 -0.0071371264  -0.01696858 
  729000    2.6490304  0.023407438    28372.625    355209.72 -0.00010447043 -0.0014347702   -0.0107572 
  730000    2.6573703  0.023589567    28372.625    356239.89 -0.0032473435 0.0022949721 -0.0078545555 
  731000    2.6557816   0.02393145    28372.625    357120.24 -0.00071024025 0.0013012255 -0.0056609259 
  732000    2.6506609  0.023272013    28372.625    358008.87 0.0020784997 0.00064390492 -0.0053371258 
  733000    2.6580245  0.023613855    28372.625    358958.75 0.0037121573 9.062834e-05 -0.0052407407 
  734000    2.6413667  0.024603292    28372.625    359776.99 0.0046527646 6.8508349e-05 -0.0028103704 
  735000    2.6593203  0.023333531    28372.625    360474.02 0.0035064329 7.4899923e-05 -0.00050879266 
  736000    2.6374219   0.02545908    28372.625    360880.19 0.0023381511 0.0010974242 -0.0025883945 
  737000    2.6488111  0.023687016    28372.625    361159.03  0.001547356 -0.0026698021 -0.00014349332 
  738000    2.6474734  0.024444801    28372.625     361447.9  0.003698637 0.00022111545 0.0027866753 
  739000    2.6659845  0.024250309    28372.625    361718.69 -1.8161583e-05 0.0070415401 0.0048757678 
  740000    2.6590356  0.023455211    28372.625    362030.74 0.00058229299 0.0040324942 0.0021234784 
  741000     2.648879  0.023874763    28372.625    362327.72 0.00083241429 0.0038931597 0.0026993265 
  742000    2.6547445  0.024106975    28372.625    362700.96  0.002507241 0.0049811897 0.0023241999 
  743000    2.6741961  0.023885991    28372.625    363030.31 0.0038951394  0.004525354 0.0017785363 
  744000     2.661303  0.023827482    28372.625    363322.62 0.0044229045 0.0030632098 -0.00065574938 
  745000    2.6727122  0.024273391    28372.625    363659.47 0.0034689678 0.0050273163 -0.0012990614 
  746000    2.6458306  0.025183007    28372.625    364041.37 0.0019080554 0.0042137046 -0.0013642509 
  747000    2.6479214   0.02426376    28372.625    364427.73 -0.00036571921 0.0045728127 -0.0042535997 
  748000    2.6387466  0.025255539    28372.625    364779.64 0.0019191202 0.0014494215 -0.0042810917 
  749000    2.6645292  0.024131834    28372.625    365056.34 9.2901281e-05 0.0027408668  -0.00277289 
  750000    2.6647675  0.024882503    28372.625    365346.55 0.00075081338 0.0054492451 -0.0023193223 
  751000    2.6648053  0.023935856    28372.625    365675.73 -0.0018074373 0.0025036748 0.00017092744 
  752000    2.6619762  0.023154907    28372.625    366025.57 -0.00094184165 0.0052296109 0.0021028218 
  753000    2.6546008  0.023229147    28372.625    366461.44 -0.00039721552  0.003353606 0.0031840782 
  754000    2.6713335  0.023870253    28372.625    367048.13 -0.0020627085 0.0031426285 0.00068133743 
  755000    2.6502529  0.025168078    28372.625    367694.85 0.00060938474 -0.00028282678 0.0019014635 
  756000    2.6596828  0.024004994    28372.625    368248.23 -0.0022132408 0.0044386004 -0.0018503433 
  757000    2.6602787  0.023968986    28372.625    368780.44 0.0016505405 0.0035888542 -0.0024245363 
  758000    2.6523105  0.023319304    28372.625     369383.8 -0.00072184198 0.0042524435 -0.0021504975 
  759000    2.6604046  0.023382928    28372.625    369982.34 -0.0011269144 0.0046326633 -0.001316933 
  760000    2.6515008  0.023694483    28372.625    370687.77 0.0021543742 0.0038768889 -0.0013446309 
  761000    2.6545072  0.024088129    28372.625    371553.87 0.0019483189 0.0035895752 -0.0011949438 
  762000    2.6590795  0.024326305    28372.625    372258.49 0.0046346319 0.0022399617 -0.00022196964 
  763000     2.657383  0.023787002    28372.625    372995.36 0.0041431023 0.0011113648 0.00038437011 
  764000     2.659024  0.023098983    28372.625    373671.13 0.0011419133 0.0015557605 -0.0008647712 
[...]
 1844000    2.6557699  0.024461271    28372.625    904526.29 -0.0014336615  0.004513378 0.0048009303 
 1845000    2.6636946  0.023313035    28372.625    905416.09 -0.0025143331 0.0038820929 -0.00048466646 
 1846000    2.6613736  0.023641838    28372.625    906199.68 -0.0024586715 0.0040922589 0.0017308191 
 1847000    2.6667768  0.024489672    28372.625    907151.75 -0.00056676462 0.0028278237 6.6524642e-05 
 1848000    2.6428667  0.024556705    28372.625    908112.69 -0.0022695777 0.0017124662 0.0012219897 
 1849000    2.6613879  0.023864586    28372.625    908838.85 -0.0048429838 0.0031015199 0.0028345373 
 1850000    2.6660487  0.024189909    28372.625    909553.49 -0.0075821842  0.005907188 0.00097350293 
 1851000    2.6529262  0.024385542    28372.625    910046.77 -0.0057329579 0.0060951831 0.0019091641 
 1852000    2.6308684  0.024926597    28372.625    910423.19 -0.0085180167 0.0072372216   0.01205613 
 1853000    2.6634702  0.023289786    28372.625    910864.22 -0.0066037051 0.00086774563 0.0021128512 
 1854000    2.6587882   0.02376496    28372.625    911379.22 -0.0041772171 0.0006084111 -0.00092616752 
 1855000    2.6510136  0.025028322    28372.625     911703.5 -0.0044783938 -0.0033369384 -0.0091335205 
 1856000    2.6556852  0.023763595    28372.625    912066.11 -0.0027404592 0.0021576191 -0.0034737252 
 1857000    2.6610553  0.023323844    28372.625    912598.06 -0.0033961236 0.0021583014 -0.0019221424 
 1858000    2.6490604  0.023789707    28372.625    913029.82 -0.0046390474 0.0018224931 -0.0018870929 
 1859000    2.6656277  0.023997718    28372.625    913647.91 -0.0048337331 0.0035851185 0.0015473128 
 1860000    2.6563153  0.024386405    28372.625    914439.62 -0.0030894186 0.0076853134 0.00064957708 
 1861000    2.6648134  0.023838742    28372.625    915081.63 -0.0049871414 0.0033666528 -0.00034551431 
 1862000    2.6629589  0.023402226    28372.625     915745.1 -0.0023723448 0.0025318118 -0.0013956107 
 1863000    2.6523621  0.023550204    28372.625    916621.33 -0.00010290482 -0.0016876549 -0.0014698819 
 1864000    2.6607071  0.023976808    28372.625    917651.54 -0.0013522838 -0.001836406 -0.0034291886 
 1865000    2.6423131  0.024574096    28372.625    918572.28 0.0003022176 0.00060873163 0.00060216004 
 1866000    2.6644608  0.023580775    28372.625    919308.53 -0.0007147374 7.4659287e-05 -0.00024262988 
 1867000    2.6580613  0.023749168    28372.625    919830.69 0.0033602995 0.0022720101 -0.00082621773 
 1868000    2.6506643  0.023326061    28372.625    920074.22 0.0036731564 0.0030734026 -0.00099437759 
 1869000     2.647202  0.023727422    28372.625     920194.5 0.0024972241 0.0024348272  0.001003805 
 1870000    2.6594718  0.023561545    28372.625    920172.81 0.0034231278 0.00051545197 -0.0029486287 
 1871000    2.6608652  0.024018564    28372.625    919904.45 0.0041545419 0.0021180763 -0.0030483292 
 1872000    2.6590971  0.024123668    28372.625    919773.57  0.002730975 0.0054534861 -0.0048329163 
 1873000     2.651312  0.024148179    28372.625    919868.05 0.00032419539 0.0028713851 -0.0056820149 
 1874000    2.6472261  0.024210507    28372.625    919940.66 -0.00054721071 0.0047792425 -0.0069814246 
 1875000    2.6637974   0.02326224    28372.625    919973.92 0.00012340962 0.0035631609 -0.0068865031 
 1876000    2.6483733  0.023613322    28372.625    919854.12 -0.0016833779 0.0037577908 -0.0064638212 
 1877000     2.651848  0.024192562    28372.625    919759.79 -0.0022333134 0.0039466042 -0.0077942296 
 1878000    2.6418364  0.023691761    28372.625    919788.14 0.0017467237 0.0039823103 -0.0023016931 
 1879000    2.6541289  0.023446571    28372.625    919922.77 0.00048654694 0.0051391125 -0.0048125012 
 1880000    2.6540848  0.023897049    28372.625     920013.6 -0.0018031263 0.0032052583 -0.0083442962 
 1881000    2.6629269  0.023688269    28372.625       920132 0.00084597719 0.0022544936 -0.0080079417 
 1882000     2.660591  0.023968171    28372.625    920220.28 0.00054159257 0.0019839478 -0.0086618403 
 1883000    2.6625345  0.023263158    28372.625    920239.86 -0.0010674542 -0.0010304411 -0.010164523 
 1884000    2.6570775  0.023347967    28372.625    920245.22 -0.00011387067 -0.00088350091 -0.0078724919 
 1885000    2.6519503  0.024120263    28372.625    920352.38 0.0015047549 -0.0018446404 -0.003287397 
 1886000    2.6540142  0.024035007    28372.625    920310.02 -0.0018426993 -0.0015590427 -0.00095411395 
 1887000    2.6596352  0.023564505    28372.625    920547.79 -0.0055297136 -0.0011292527 -0.004057971 
 1888000    2.6547379  0.023950958    28372.625    920711.77 -0.0066509188 -0.0012517017 -0.0011119645 
 1889000    2.6684538  0.024394298    28372.625    920644.42 -0.0045182704 0.0025076221 0.0013030564 
 1890000    2.6464932  0.023386714    28372.625    920671.21 -0.00037903408 -0.00042360488 -0.00023341581 
 1891000    2.6466064  0.023958077    28372.625    920663.24 0.0011976591 0.0017482737 0.0033079057 
 1892000    2.6600601  0.023777588    28372.625    920705.93 0.0025372343 0.0016100541 0.00070387803 
 1893000    2.6653265  0.023347977    28372.625    920824.24 0.0017603203 0.0027926425 0.00063060855 
 1894000    2.6579369  0.023681552    28372.625    920864.16 -3.7416154e-05 0.0050225905 0.00068999129 
 1895000    2.6431366  0.024365531    28372.625    920947.89 -0.0011999172 0.0029266056 0.0017418801 
 1896000     2.652306  0.024607432    28372.625    920897.79 0.0012056343 0.0044797688 0.0041822724 
 1897000    2.6521504  0.024074805    28372.625    920950.45 -0.0007524367 -0.0033213442 0.0040626051 
 1898000    2.6590736  0.023692124    28372.625    921098.19 -0.00097188835 -0.0044660589  0.004658579 
 1899000    2.6601931  0.023677177    28372.625       921315 -0.0018077076 -0.0035845725 0.0037555618 
 1900000    2.6678216   0.02317359    28372.625    921475.23 0.0031086103 -0.0038181732  0.004819017 
 1901000    2.6673326  0.023568395    28372.625    921788.88 0.0061107768 -0.002655357 0.0029303569 
 1902000    2.6499791  0.023240376    28372.625    922063.66 0.0045236304 -0.0025687678 0.0024329301 
 1903000    2.6629195  0.023247739    28372.625    922213.03 0.0081730477 -0.00014994493 0.0022648018 
 1904000    2.6490615  0.023989209    28372.625    922263.53 0.0061263223 0.00073417341 0.0020823336 
 1905000    2.6733579   0.02369033    28372.625    922443.97 0.0064987879 -0.0028657303 -0.0012253627 
 1906000    2.6524679  0.024167393    28372.625     922839.6 0.0021268273 0.00020604554 0.00096684209 
 1907000    2.6536813  0.023538963    28372.625    923191.32 0.0018426491  0.003983133 0.00068687921 
 1908000    2.6493672  0.023762313    28372.625    923382.58 0.0030633094 0.0049029117 -0.0014890067 
 1909000    2.6483692  0.024928828    28372.625    923732.39  0.002378412 -0.00031822853 0.0016416894 
 1910000    2.6500475  0.024011896    28372.625    924240.93 0.0023217959 0.0060524735 0.00075079811 
 1911000    2.6524015  0.024434414    28372.625    924906.11 0.0015631986 0.0060366067 0.0019322366 
 1912000    2.6636601  0.023982208    28372.625    925907.69 0.0036843308 0.0015487115 0.0022573886 
 1913000    2.6744943  0.023742582    28372.625    926970.64 0.0043372466 -0.00067524582 0.0049857584 
 1914000    2.6759419  0.024241857    28372.625    927835.96 0.0058233848 -0.0011864455 0.0045451651 
 1915000    2.6646666  0.023840979    28372.625    928398.17 0.0045495941 0.00096677864 0.0055969707 
 1916000    2.6587116  0.023594023    28372.625    928665.74 0.0038089023 -0.0061964153 0.0043309531 
 1917000     2.646806  0.025385493    28372.625    928916.13 0.0069842603 -0.0006564856 0.0050278895 
 1918000    2.6526564  0.024648168    28372.625    929238.96 0.0036464843 -0.0017750349 0.0017857971 
 1919000    2.6566425  0.024515837    28372.625    929808.91 0.0062215346 0.0005042619 -0.00068954729 
 1920000    2.6417355  0.025770359    28372.625    930143.06 0.0016411746 -0.0042609407 -0.00074393803 
 1921000    2.6548467  0.024514212    28372.625    930588.97 -0.00095790642 -0.0061687873 0.0012240163 
 1922000    2.6539727  0.023404936    28372.625    930793.02 -0.0023849264 -0.00098247089 0.00046927649 
 1923000    2.6653319   0.02360432    28372.625    930959.72 -0.0022045678 -0.0051704001 -0.00081109653 
 1924000    2.6506895  0.023366561    28372.625    931575.23 -0.0019605157 -0.0062320792 -0.00031667775 
 1925000     2.658094  0.023539411    28372.625    932358.57 -0.0015208218 -0.0034547409 0.0025577716 
 1926000    2.6588324  0.023313704    28372.625    932906.01 -0.0062483288 -0.0015667949 0.00085735425 
 1927000     2.666008  0.024088835    28372.625    933378.67 -0.0033819519 -0.0012753676 0.00010601874 
 1928000    2.6591664  0.023439422    28372.625     933784.6 -0.0040729909 -0.0017187411 0.0012114029 
 1929000    2.6495784  0.023794268    28372.625    934161.64 -0.0049107651 -0.0023840891 -0.0010268315 
 1930000    2.6650578  0.023489028    28372.625    934610.64 -0.0025442326 -0.0012235265 -0.00061940373 
 1931000    2.6593862  0.023697859    28372.625     935271.6 -0.002537208 -0.0024677841 -0.0032822382 
 1932000     2.654711  0.023601825    28372.625    935900.37 -0.00014962373 -0.002967978 -0.002227614 
 1933000    2.6451787  0.024894853    28372.625    936480.79 0.0016798271 -0.0023453821 -0.0023319221 
 1934000    2.6500383  0.023504453    28372.625    937099.04 0.0013983671 -0.0035260474 0.00084493401 
 1935000    2.6615531  0.023332691    28372.625     937630.8 0.0059735572 -0.001568918 0.0024747412 
 1936000    2.6602232  0.023531616    28372.625    938219.45 0.0063925935 -0.0034776412 0.0040383058 
 1937000    2.6396794  0.024346803    28372.625    938794.99 0.0064500701 0.00021867616 0.0024624799 
 1938000    2.6557494  0.023496175    28372.625    939341.12 0.0030084099 -0.001628953 -0.0011393962 
 1939000    2.6594564  0.024844335    28372.625    940005.67 0.0061487006 -0.0037164854 -0.0031677727 
 1940000    2.6582835  0.023668435    28372.625    940981.69 0.0048287863 -0.0020959073 -0.0017313892 
 1941000     2.649594  0.024164299    28372.625    941938.93 0.0029331351 0.00015315498 -0.00045131223 
 1942000    2.6501304  0.023546309    28372.625    942925.64   0.00316027 -0.00039514723 -0.0021753982 
 1943000     2.645811  0.025568058    28372.625    943907.55 0.0015715254 -0.0071097381 0.00095407941 
 1944000    2.6570623  0.024875665    28372.625    944860.13 0.0048051015 -0.00017038686 -0.0047690023 
 1945000    2.6572465  0.023619442    28372.625    945995.28 0.0035605121 -0.0017579323 0.0003523703 
 1946000    2.6656764  0.023749757    28372.625    947096.86 0.0019276627 -0.0020125318 -0.0030108519 
 1947000    2.6551416  0.023667295    28372.625    948048.53 -0.00090395021 -0.0035767645 -0.0032280024 
 1948000    2.6682173  0.023357822    28372.625    948789.15 0.00061079462 -0.0018045324 -0.0045970865 
 1949000    2.6565556  0.023658428    28372.625    949210.68 0.0049719482 -0.0036591144 -0.0033824612 
 1950000    2.6639574  0.024261049    28372.625    949525.26 0.0016964683 -0.0040574205 -0.00098364131 
 1951000    2.6516759  0.023497631    28372.625    949805.81 0.0050674011 -0.0031386217 -0.004246582 
 1952000    2.6571795  0.023391138    28372.625    950165.74 0.0039620444 -0.00036144474 -0.0036371683 
 1953000    2.6722553  0.023479947    28372.625    950465.76 0.0021054483 0.0015075624 -0.00035807349 
 1954000    2.6597455  0.024910767    28372.625    950593.52 0.00040709194 0.0082736171 0.0025446465 
 1955000    2.6432609  0.024886202    28372.625    950532.38 0.0025799761 -0.0015106654 0.00013233557 
 1956000    2.6585777  0.025137572    28372.625    950679.23 -0.0018009571 0.0044192686 -0.0030542281 
 1957000     2.654718  0.024531129    28372.625    950850.65 -0.00068677117 0.0049271495 0.0014451949 
 1958000    2.6642057  0.023908342    28372.625    950903.89 -0.00072259615 0.0054725597 0.0025039885 
 1959000    2.6549211  0.023212599    28372.625    951354.17 -0.0018178774 0.0063303469 0.0019227952 
 1960000    2.6622405  0.023851098    28372.625     952001.5 -0.00053465315 0.0055064447 0.00087595389 
 1961000    2.6560155  0.023671575    28372.625     952719.6 -0.00041305831 0.0058167963 0.0027464956 
 1962000    2.6619044  0.023599553    28372.625    953344.01 -0.0035653849  0.007683199 -0.00075286036 
 1963000    2.6569303  0.023388396    28372.625    953880.05 -0.00097494834 0.0069452231 0.00039893492 
 1964000    2.6597397  0.023789373    28372.625    954330.36 -0.0011178616 0.0047881714 -0.00076094765 
 1965000    2.6602152   0.02452091    28372.625    954795.54 0.00033012966 0.0064057303 0.0015717385 
 1966000    2.6614282  0.023276016    28372.625    955126.44 0.0012057728  0.003842234 0.00068438853 
 1967000    2.6549759  0.023311998    28372.625    955380.31 0.0013637716 0.0044731248 0.0001986261 
 1968000    2.6613217  0.023224072    28372.625    955620.33 -0.0029820173 0.0038687596 0.0037950367 
 1969000    2.6558011  0.023382317    28372.625    955920.75 -0.0033837808 0.0030414762 0.0026528723 
 1970000    2.6656885  0.023524561    28372.625    956271.93 -0.0046999677 0.0049980103 0.0021615482 
 1971000    2.6503503  0.023189846    28372.625     956562.7 -0.003933491 0.0062122386 0.0018444467 
 1972000    2.6638169  0.023231095    28372.625    956888.95  -0.00223907 0.0071182359 0.0012135367 
 1973000     2.659085  0.024358532    28372.625    956947.72 -0.00024500528 0.0065815696 0.0014666934 
 1974000    2.6570673  0.025137867    28372.625    956638.05 -0.0018840832 0.0087874001 0.0019344698 
 1975000    2.6441719  0.023633216    28372.625     956304.9 0.00016187077 0.0060438551 -0.0019624695 
 1976000    2.6757975  0.023261761    28372.625    956279.46 0.00035738666 0.0090546084 -0.0025770795 
 1977000    2.6649175  0.023517829    28372.625    956522.99 0.0036273355 0.0093479739 -0.0016229333 
 1978000    2.6634712  0.023508798    28372.625    956897.31   0.00313061 0.0096671172 0.00040034935 
 1979000    2.6794754  0.023883919    28372.625    957304.25 0.0014626496   0.01003966 -0.00097100127 
 1980000    2.6576683  0.023900878    28372.625    957518.63 -5.7401297e-05 0.0097290498 -0.0038747591 
 1981000    2.6569552  0.023336497    28372.625    957488.56 -0.0028520595  0.010980837 -0.0026719384 
 1982000    2.6695757  0.024197472    28372.625       957512 -0.00060229937  0.011650223  0.001497476 
 1983000    2.6610519  0.023599649    28372.625     957435.2 -0.0019671566  0.012006659 -0.0028599491 
 1984000    2.6642573  0.023417494    28372.625    957381.59 3.6371142e-05  0.010143371 -0.0020169607 
 1985000    2.6618395   0.02408753    28372.625    957494.85 -0.0013903136  0.013348703 -0.0027530124 
 1986000    2.6632704  0.023881436    28372.625    957927.57 -0.00019847599  0.011824746 -0.0043982261 
 1987000    2.6707631  0.023633311    28372.625     958343.2 -0.00028368909  0.010079118 -0.0039973209 
 1988000    2.6652283  0.024301069    28372.625    958846.67 -0.0012376684 0.0057702057 -0.00056334252 
 1989000    2.6574608  0.023877927    28372.625    959643.35 -0.0036716688  0.003548745 -0.0044095559 
 1990000    2.6531635  0.023343277    28372.625    960426.37 -0.00083628677 0.0049231835 -0.0024818901 
 1991000    2.6585701  0.023108581    28372.625    961285.45 0.00013251308  0.003214331 0.0011409598 
 1992000    2.6616782  0.023756584    28372.625    962085.23 -0.0016822549 0.0051044196 0.00046973193 
 1993000    2.6615111  0.023682531    28372.625     962491.9 0.00023228551  0.005060272 -0.00021672435 
 1994000     2.658697  0.023628246    28372.625    962898.61 -0.00042309504 0.0043390354 0.0018244424 
 1995000    2.6532299  0.023444028    28372.625    962952.84 -0.004508417 0.0031172641 0.0019138014 
 1996000    2.6610393  0.024516119    28372.625    962733.89 -0.0045754627 0.0051631598 -0.0010788962 
 1997000     2.660361  0.023565056    28372.625    962563.53 -0.0031615861 0.00015364085 -0.00063719947 
 1998000    2.6551268  0.023650312    28372.625    962302.49 -0.00051488283 0.00026857816 -0.00091696174 
 1999000    2.6546241  0.023637458    28372.625    962138.51 -0.0035392256 -0.0011144583 -0.0014623516 
 2000000    2.6634587  0.023648294    28372.625    962126.11 -0.0015126934 0.00096654625 0.00011037653 
Loop time of 749.972 on 1 procs for 2000000 steps with 256 atoms

Pair  time (%) = 10.7144 (1.42863)
Neigh time (%) = 12.8879 (1.71845)
Comm  time (%) = 5.3409 (0.712146)
Outpt time (%) = 0.189303 (0.0252413)
Other time (%) = 720.84 (96.1155)

Nlocal:    256 ave 256 max 256 min
Histogram: 1 0 0 0 0 0 0 0 0 0
Nghost:    156 ave 156 max 156 min
Histogram: 1 0 0 0 0 0 0 0 0 0
Neighs:    112 ave 112 max 112 min
Histogram: 1 0 0 0 0 0 0 0 0 0

Total # of neighbors = 112
Ave neighs/atom = 0.4375
Neighbor list builds = 159179
Dangerous builds = 3549
#	run			10000
	unfix			1
	uncompute		myKE
	uncompute		myPE
	uncompute		myStress
	uncompute		flux
	uncompute		myDis
	unfix			JJ

	next seed
	next iseed
jump lmp.in.gk loop_seed
variable iseed loop 10
variable seed index 11111 22222 33333 44444 55555 66666 77777 88888 99999 11112
clear

# Lennard-Jones
#Prepare Geometry---------------------------------------------------------------
units			lj
atom_style		atomic
read_data		lmp.in.x0.1
  orthogonal box = (0 0 0) to (30.5 30.5 30.5)
  1 by 1 by 1 MPI processor grid
  256 atoms
#Initialize Structure-----------------------------------------------------------
#mass           	1  1.0
#group         		Ar type = 1
#LJ Potentials------------------------------------------------------------------
pair_style		lj/cut 2.5
pair_coeff		* * 1.0 1.0
pair_modify          	shift yes
#pair_modify   	tail no

#Variables----------------------------------------------------------------------
#LJ Parameters
variable    	kB 		equal 1.3806504e-23 	# [J/K] Boltzmann
variable	sigma_Ar 	equal 3.4e-10 		# m
variable	eps_Ar		equal 1.67e-21		# J
variable	mass_Ar		equal 6.63e-26		# kg
variable	tau_Ar		equal 2.1423e-12	# s
#thermo Parameters
variable    	T_melt 		equal 300*(${kB}/${eps_Ar})
variable    	T_melt 		equal 300*(1.3806504000000001236e-23/${eps_Ar})
variable    	T_melt 		equal 300*(1.3806504000000001236e-23/1.6699999999999999942e-21)
variable	T_0K		equal 0.00001
variable	T_2_5K		equal 2.5*(${kB}/${eps_Ar})
variable	T_2_5K		equal 2.5*(1.3806504000000001236e-23/${eps_Ar})
variable	T_2_5K		equal 2.5*(1.3806504000000001236e-23/1.6699999999999999942e-21)
variable	T_5K		equal 5*(${kB}/${eps_Ar})
variable	T_5K		equal 5*(1.3806504000000001236e-23/${eps_Ar})
variable	T_5K		equal 5*(1.3806504000000001236e-23/1.6699999999999999942e-21)
variable	T_10K		equal 10*(${kB}/${eps_Ar})
variable	T_10K		equal 10*(1.3806504000000001236e-23/${eps_Ar})
variable	T_10K		equal 10*(1.3806504000000001236e-23/1.6699999999999999942e-21)
variable	T_15K		equal 15*(${kB}/${eps_Ar})
variable	T_15K		equal 15*(1.3806504000000001236e-23/${eps_Ar})
variable	T_15K		equal 15*(1.3806504000000001236e-23/1.6699999999999999942e-21)
variable	T_320K		equal 320*(${kB}/${eps_Ar})
variable	T_320K		equal 320*(1.3806504000000001236e-23/${eps_Ar})
variable	T_320K		equal 320*(1.3806504000000001236e-23/1.6699999999999999942e-21)

variable   	dt 		equal 0.002
variable	quench_rate	equal 1.0
variable	quench_length 	equal 10000
#kappa parameters
variable    	p 		equal 200000 		# correlation length
variable    	s 		equal 5  		# sample interval
variable    	d 		equal $p*$s 		# dump interval
variable    	d 		equal 200000*$s 		
variable    	d 		equal 200000*5 		

#SED parameters
variable	w_step		equal 2^5
variable	w_total		equal 2^16
variable	t_total		equal 2^18
variable	num_ffts	equal ${t_total}/${w_total}
variable	num_ffts	equal 262144/${w_total}
variable	num_ffts	equal 262144/65536

#------------ RUN TEMP ---------------------------------------------------------------------
variable 	T_run 		equal ${T_320K}
variable 	T_run 		equal 2.6455576526946114058
#------------ RUN TEMP ---------------------------------------------------------------------

log 	log_heat_${iseed}.lammps
log 	log_heat_7.lammps
