
#------------ NVE rescale ---------------------------------------------------------------------

	velocity 		all create ${T_run} ${seed} rot yes dist gaussian
	velocity 		all create 2.6455576526946114058 ${seed} rot yes dist gaussian
	velocity 		all create 2.6455576526946114058 44444 rot yes dist gaussian

	fix 			1 all nve
	fix 			2 all temp/rescale 1 ${T_run} ${T_run} 0.01 1.0
	fix 			2 all temp/rescale 1 2.6455576526946114058 ${T_run} 0.01 1.0
	fix 			2 all temp/rescale 1 2.6455576526946114058 2.6455576526946114058 0.01 1.0
	timestep		${dt}
	timestep		0.0020000000000000000416
	thermo_style  		custom step temp press etotal vol
	thermo			1000
	run             	200000
Memory usage per processor = 1.67356 Mbytes
Step Temp Press TotEng Volume 
       0    2.6455577  0.023669049   -1.5687558    28372.625 
    1000    2.6397098  0.020114955    3.0534756    28372.625 
    2000    2.6462789  0.020510812    3.1663075    28372.625 
    3000    2.6551306  0.022593741    3.2443385    28372.625 
    4000    2.6490404  0.021565939    3.3201265    28372.625 
    5000    2.6436742  0.022773668    3.3854303    28372.625 
    6000    2.6463939  0.021246826    3.3634416    28372.625 
    7000    2.6478582  0.022046776     3.409864    28372.625 
    8000    2.6426598  0.022103017    3.4727823    28372.625 
    9000    2.6401488  0.024632618    3.5037923    28372.625 
   10000    2.6401469  0.021760587    3.5368772    28372.625 
   11000    2.6429424  0.023327602    3.5815768    28372.625 
   12000    2.6409403  0.023811789    3.6217262    28372.625 
   13000    2.6491373   0.02195684    3.6283699    28372.625 
   14000    2.6492544  0.021959208    3.6671218    28372.625 
   15000    2.6404476  0.024458808    3.6948101    28372.625 
   16000    2.6449383  0.024119475    3.6901396    28372.625 
   17000    2.6489849  0.023390932    3.7235569    28372.625 
   18000    2.6477063  0.022428376    3.7426025    28372.625 
   19000     2.650824  0.023410323    3.7600415    28372.625 
   20000    2.6533524  0.023110784    3.7945961    28372.625 
   21000    2.6484968  0.023667459    3.7958751    28372.625 
   22000    2.6388848  0.024869165    3.8149317    28372.625 
   23000    2.6424567  0.024570007    3.8283609    28372.625 
   24000    2.6452983  0.023991008    3.8446486    28372.625 
   25000    2.6453231  0.023309741    3.8610688    28372.625 
   26000    2.6426195  0.023921844    3.8649951    28372.625 
   27000    2.6393349  0.023478811    3.8381821    28372.625 
   28000    2.6490591  0.022956519    3.8795541    28372.625 
   29000      2.65533   0.02368376    3.8712066    28372.625 
   30000     2.636629  0.024669046    3.8866665    28372.625 
   31000     2.642235  0.023423397    3.8594481    28372.625 
   32000    2.6490976  0.022814691    3.8602844    28372.625 
   33000    2.6477518  0.024899167    3.9086525    28372.625 
   34000    2.6553968  0.023535073    3.9003421    28372.625 
   35000    2.6545714  0.023904415    3.8985925    28372.625 
   36000    2.6510227  0.023323808     3.898453    28372.625 
   37000    2.6506053  0.023409167    3.9155075    28372.625 
   38000    2.6497778  0.023267912    3.9017007    28372.625 
   39000    2.6460499  0.023213981     3.889591    28372.625 
   40000    2.6445069  0.023374235    3.8950554    28372.625 
   41000    2.6525832  0.023581824    3.9259641    28372.625 
   42000    2.6540046  0.023357559    3.9082377    28372.625 
   43000    2.6435452  0.023439783    3.8961908    28372.625 
   44000    2.6544476   0.02322488    3.9154049    28372.625 
   45000    2.6451771  0.023522005    3.9058885    28372.625 
   46000    2.6460504  0.023213934    3.8982766    28372.625 
   47000    2.6463709  0.023178183    3.9164988    28372.625 
   48000    2.6480107  0.023450321    3.9154587    28372.625 
   49000    2.6481511  0.023539742    3.8997337    28372.625 
   50000    2.6518501  0.023693663    3.8863244    28372.625 
   51000    2.6422384  0.024106463    3.9211039    28372.625 
   52000    2.6423994  0.023131072    3.8907026    28372.625 
   53000    2.6506259  0.023226477    3.9069349    28372.625 
   54000    2.6505325  0.023405525    3.9048525    28372.625 
   55000    2.6428054  0.023838236    3.9097034    28372.625 
   56000    2.6509894  0.023576732    3.9125612    28372.625 
   57000    2.6540162  0.023714107    3.9119414    28372.625 
   58000    2.6539207  0.023164565    3.8959088    28372.625 
   59000    2.6378493   0.02505558    3.9079471    28372.625 
   60000    2.6440664  0.023335624     3.898135    28372.625 
   61000    2.6495174   0.02353029    3.8876147    28372.625 
   62000    2.6421375   0.02373713    3.8882557    28372.625 
   63000    2.6455577  0.023597065    3.9057178    28372.625 
   64000    2.6456241  0.024342221    3.9210735    28372.625 
   65000    2.6494003  0.023287016    3.9094064    28372.625 
   66000    2.6453232  0.023498213    3.9091999    28372.625 
   67000    2.6527349  0.023819571    3.9232917    28372.625 
   68000    2.6392136   0.02436968    3.9165804    28372.625 
   69000    2.6386275  0.024704118    3.8984288    28372.625 
   70000    2.6409859  0.023321539    3.8985356    28372.625 
   71000    2.6440549  0.023862447    3.8991022    28372.625 
   72000    2.6478423  0.023403946     3.899069    28372.625 
   73000    2.6438384  0.024208061    3.9165367    28372.625 
   74000    2.6438902  0.023681906    3.8871026    28372.625 
   75000    2.6527703  0.023816746    3.9218008    28372.625 
   76000    2.6526325  0.023591068    3.9238111    28372.625 
   77000    2.6503498  0.023187338    3.9082106    28372.625 
   78000    2.6433826   0.02367615     3.896647    28372.625 
   79000    2.6472062  0.023568302      3.91292    28372.625 
   80000     2.650048  0.023937142    3.9152442    28372.625 
   81000     2.648866   0.02363642     3.916373    28372.625 
   82000    2.6472055  0.023781815    3.9162363    28372.625 
   83000    2.6398013  0.024526637     3.906777    28372.625 
   84000    2.6500723  0.023939346    3.9068029    28372.625 
   85000    2.6503762  0.023341603    3.9084577    28372.625 
   86000    2.6495567  0.023052416    3.9085553    28372.625 
   87000    2.6463412  0.023787995    3.9200424    28372.625 
   88000    2.6469094  0.023626221    3.9067643    28372.625 
   89000    2.6373923  0.027935885    3.9756147    28372.625 
   90000    2.6421788  0.023637303    3.8998405    28372.625 
   91000    2.6464054  0.023286904    3.9177727    28372.625 
   92000    2.6503528  0.023408434    3.9332911    28372.625 
   93000    2.6378852   0.02588008    3.9201963    28372.625 
   94000    2.6450808  0.023326271    3.9126673    28372.625 
   95000      2.64717  0.026134891    3.9473048    28372.625 
   96000    2.6411957  0.024334285    3.9439479    28372.625 
   97000    2.6455577  0.024706148      3.90193    28372.625 
   98000    2.6392923  0.024748919    3.8914437    28372.625 
   99000    2.6544089  0.023221224    3.9094813    28372.625 
  100000    2.6437655  0.023376138    3.8802168    28372.625 
  101000    2.6533756  0.024988566    3.9472668    28372.625 
  102000    2.6373718  0.024212472    3.9150545    28372.625 
  103000    2.6478512  0.023302161    3.9013177    28372.625 
  104000     2.645661  0.023239741    3.9001947    28372.625 
  105000    2.6429841  0.023627458    3.8996573    28372.625 
  106000    2.6443787  0.023358815    3.8989386    28372.625 
  107000     2.651931  0.023368043    3.9169938    28372.625 
  108000    2.6488673  0.023713752    3.9146264    28372.625 
  109000    2.6418896  0.023931185    3.9159093    28372.625 
  110000    2.6448562  0.023852737    3.9332354    28372.625 
  111000    2.6469389  0.023223391    3.9043804    28372.625 
  112000    2.6532865  0.023124958    3.9141069    28372.625 
  113000    2.6425145  0.023637067    3.8820442    28372.625 
  114000    2.6521238  0.023527112     3.929488    28372.625 
  115000    2.6474681  0.023362142    3.9052777    28372.625 
  116000    2.6493157  0.023362715    3.9203849    28372.625 
  117000    2.6386867  0.023431089    3.9205778    28372.625 
  118000    2.6435548  0.023706613    3.9089191    28372.625 
  119000    2.6448714  0.023990749    3.9286043    28372.625 
  120000    2.6538839  0.023172364    3.9157808    28372.625 
  121000    2.6516862  0.023719945    3.9318814    28372.625 
  122000    2.6463624  0.024601219    3.9236692    28372.625 
  123000    2.6487716    0.0240734    3.9093699    28372.625 
  124000    2.6430312  0.024517151    3.9211507    28372.625 
  125000    2.6553146  0.025931693    3.9288767    28372.625 
  126000    2.6465688  0.023623629    3.8830312    28372.625 
  127000    2.6365913  0.024522727    3.8986515    28372.625 
  128000    2.6452435  0.023824347    3.9128157    28372.625 
  129000    2.6511073  0.023269134    3.9194176    28372.625 
  130000    2.6497455  0.023615305    3.9044401    28372.625 
  131000    2.6438147  0.023510881    3.9053576    28372.625 
  132000    2.6455457  0.023653252    3.9200006    28372.625 
  133000    2.6440565  0.023636834    3.9040267    28372.625 
  134000    2.6486687  0.022988075    3.8885731    28372.625 
  135000    2.6522697  0.024164089    3.8908682    28372.625 
  136000    2.6427737  0.025077672     3.911841    28372.625 
  137000    2.6391651  0.024056089    3.9044529    28372.625 
  138000    2.6484343  0.023266432    3.9216222    28372.625 
  139000    2.6477067  0.023101222    3.8933273    28372.625 
  140000    2.6486454  0.023885399    3.9101305    28372.625 
  141000    2.6471613  0.023131732    3.8772982    28372.625 
  142000    2.6520633  0.023589391    3.9258254    28372.625 
  143000     2.650542  0.023554074    3.9122149    28372.625 
  144000    2.6459199  0.023604527    3.8875412    28372.625 
  145000     2.640908  0.023554552    3.9047253    28372.625 
  146000    2.6490586  0.025303206    3.9236527    28372.625 
  147000    2.6464918  0.023211636     3.908553    28372.625 
  148000    2.6522046  0.023558684    3.8873416    28372.625 
  149000    2.6532171  0.024052041    3.9091748    28372.625 
  150000     2.644899  0.024823699    3.9006584    28372.625 
  151000    2.6481506  0.023532713    3.9179449    28372.625 
  152000    2.6455577  0.024001229    3.9056288    28372.625 
  153000    2.6489936  0.023696571    3.9192626    28372.625 
  154000     2.650391  0.023146074    3.9052594    28372.625 
  155000    2.6429774  0.025279562     3.926953    28372.625 
  156000     2.650227  0.023466639    3.9178347    28372.625 
  157000    2.6405228  0.024709882    3.9163363    28372.625 
  158000    2.6523272  0.024546666    3.9182575    28372.625 
  159000    2.6380956   0.02388705    3.9049477    28372.625 
  160000    2.6550068   0.02338551    3.9215555    28372.625 
  161000    2.6421404  0.025389543    3.9385825    28372.625 
  162000    2.6472291  0.023393983    3.9204508    28372.625 
  163000    2.6502706  0.023614834    3.9240435    28372.625 
  164000     2.654941  0.023579331    3.9108242    28372.625 
  165000    2.6477003  0.023628713    3.9105499    28372.625 
  166000    2.6489682  0.023648647    3.9080229    28372.625 
  167000    2.6501026  0.023360253    3.9246086    28372.625 
  168000     2.640186   0.02442916    3.8984939    28372.625 
  169000    2.6529383  0.023341779    3.9142781    28372.625 
  170000    2.6454281  0.023727543    3.9206414    28372.625 
  171000    2.6489423  0.023393333    3.9238364    28372.625 
  172000    2.6486754  0.023364855    3.9043059    28372.625 
  173000     2.642042  0.023817251    3.9004741    28372.625 
  174000    2.6546217  0.024251946    3.9068495    28372.625 
  175000    2.6507849  0.023238028    3.8950488    28372.625 
  176000    2.6444059  0.024080646    3.9117716    28372.625 
  177000    2.6472075  0.023395737     3.881998    28372.625 
  178000    2.6428168  0.024168791    3.8995945    28372.625 
  179000     2.640057  0.024730974    3.9185398    28372.625 
  180000    2.6501485  0.024327129    3.8917637    28372.625 
  181000    2.6485382  0.023646576    3.9043319    28372.625 
  182000     2.649063  0.023411795     3.909889    28372.625 
  183000    2.6532515  0.023260956    3.9112013    28372.625 
  184000    2.6433289  0.022921446    3.8833482    28372.625 
  185000     2.647198  0.024600096    3.9176142    28372.625 
  186000    2.6516604  0.023571392    3.9025925    28372.625 
  187000    2.6475176  0.023267709    3.9014387    28372.625 
  188000    2.6494883  0.024378762    3.9050299    28372.625 
  189000    2.6376035   0.02380729    3.9059579    28372.625 
  190000    2.6541797  0.023731187    3.9075062    28372.625 
  191000    2.6462923  0.023678635    3.9216463    28372.625 
  192000    2.6521425  0.023117094    3.9085618    28372.625 
  193000    2.6488253  0.023426516    3.9270658    28372.625 
  194000    2.6390852  0.024541598    3.9260549    28372.625 
  195000    2.6527827  0.024198667    3.9319026    28372.625 
  196000    2.6413893  0.025098639    3.9181486    28372.625 
  197000    2.6490817  0.023792841    3.9050863    28372.625 
  198000    2.6525169  0.025349521    3.9396434    28372.625 
  199000    2.6406526  0.024067019    3.8950197    28372.625 
  200000    2.6527151  0.024653263    3.9143539    28372.625 
Loop time of 3.71926 on 1 procs for 200000 steps with 256 atoms

Pair  time (%) = 0.885613 (23.8115)
Neigh time (%) = 1.2999 (34.9504)
Comm  time (%) = 0.454044 (12.2079)
Outpt time (%) = 0.00660419 (0.177567)
Other time (%) = 1.0731 (28.8525)

Nlocal:    256 ave 256 max 256 min
Histogram: 1 0 0 0 0 0 0 0 0 0
Nghost:    173 ave 173 max 173 min
Histogram: 1 0 0 0 0 0 0 0 0 0
Neighs:    107 ave 107 max 107 min
Histogram: 1 0 0 0 0 0 0 0 0 0

Total # of neighbors = 107
Ave neighs/atom = 0.417969
Neighbor list builds = 16286
Dangerous builds = 2682
#	run             	1000
	unfix 			1
	unfix 			2

#------------ NVE -----------------------------------------------------------------------------

	fix 			1 all nve
	timestep		${dt}
	timestep		0.0020000000000000000416
	thermo_style  		custom step temp press etotal vol
	thermo			1000
	run             	100000
Memory usage per processor = 1.67356 Mbytes
Step Temp Press TotEng Volume 
  200000    2.6527151  0.024653263    3.9143539    28372.625 
  201000    2.6531611  0.023727295    3.9144033    28372.625 
  202000    2.6387097  0.023447688     3.914398    28372.625 
  203000    2.6582221  0.024523472    3.9144117    28372.625 
  204000    2.6615967  0.023120696    3.9144066    28372.625 
  205000     2.642907  0.023301899    3.9143966    28372.625 
  206000    2.6655562  0.023469002     3.914394    28372.625 
  207000    2.6568862   0.02439584    3.9143995    28372.625 
  208000    2.6647704  0.024293865    3.9143863    28372.625 
  209000    2.6606731   0.02402415    3.9143887    28372.625 
  210000     2.654524  0.024182894    3.9143923    28372.625 
  211000    2.6541118  0.023741278    3.9144007    28372.625 
  212000    2.6612987  0.023646529    3.9143896    28372.625 
  213000     2.661388  0.024265669    3.9143944    28372.625 
  214000    2.6619381  0.024147285    3.9143808    28372.625 
  215000    2.6617503  0.023684576     3.914373    28372.625 
  216000    2.6425231  0.024465852    3.9143186    28372.625 
  217000    2.6447323  0.024912234    3.9143565    28372.625 
  218000    2.6585936  0.023862089    3.9143781    28372.625 
  219000    2.6631053  0.024225297    3.9143728    28372.625 
  220000    2.6396451  0.023191261    3.9143843    28372.625 
  221000    2.6457698   0.02395102    3.9143617    28372.625 
  222000    2.6359471  0.023988113    3.9143784    28372.625 
  223000    2.6438679  0.023977692    3.9143795    28372.625 
  224000    2.6472424  0.023253422    3.9143858    28372.625 
  225000    2.6577754  0.023962914     3.914361    28372.625 
  226000     2.653501  0.023546811    3.9143725    28372.625 
  227000    2.6566192  0.024115035    3.9143693    28372.625 
  228000    2.6517771  0.023381979    3.9143764    28372.625 
  229000    2.6610221  0.023573939    3.9143763    28372.625 
  230000    2.6549952  0.023750289    3.9143755    28372.625 
  231000     2.659557  0.024260189    3.9143617    28372.625 
  232000    2.6555893  0.023702054    3.9143697    28372.625 
  233000     2.665299  0.023346644    3.9143666    28372.625 
  234000    2.6599918    0.0239576    3.9143775    28372.625 
  235000    2.6616588  0.023489134    3.9143798    28372.625 
  236000    2.6580189   0.02316083    3.9143844    28372.625 
  237000     2.645652  0.023372284    3.9143786    28372.625 
  238000    2.6588848  0.023731495    3.9143765    28372.625 
  239000    2.6451258  0.024376277    3.9143787    28372.625 
  240000    2.6465421  0.023533647    3.9143725    28372.625 
  241000    2.6569135  0.024394664    3.9143705    28372.625 
  242000    2.6522427  0.023943054    3.9143565    28372.625 
  243000    2.6547696  0.024127636    3.9143607    28372.625 
  244000    2.6557627  0.023810969    3.9143793    28372.625 
  245000    2.6607255  0.023467844    3.9143847    28372.625 
  246000    2.6571078  0.023210134     3.914385    28372.625 
  247000    2.6497997   0.02395699     3.914381    28372.625 
  248000    2.6446233  0.023963726    3.9143882    28372.625 
  249000    2.6664515  0.024008754     3.914377    28372.625 
  250000    2.6426578  0.024164664    3.9143898    28372.625 
  251000    2.6532329  0.023769178    3.9143993    28372.625 
  252000    2.6574338  0.023843508    3.9143931    28372.625 
  253000    2.6504955   0.02339167    3.9144041    28372.625 
  254000    2.6483741  0.023440498    3.9144014    28372.625 
  255000    2.6554141  0.024414376    3.9144051    28372.625 
  256000    2.6401541  0.023850563    3.9144123    28372.625 
  257000     2.658777  0.023951109       3.9144    28372.625 
  258000    2.6521999  0.024213263     3.914397    28372.625 
  259000    2.6552623    0.0235371    3.9143955    28372.625 
  260000    2.6594228  0.023805965     3.914404    28372.625 
  261000     2.649541  0.023724832    3.9144119    28372.625 
  262000    2.6510611   0.02378538    3.9144213    28372.625 
  263000    2.6475174  0.023939576    3.9144175    28372.625 
  264000    2.6355675   0.02353965    3.9144022    28372.625 
  265000    2.6476249  0.023646366    3.9144186    28372.625 
  266000    2.6469917  0.023903095    3.9144158    28372.625 
  267000    2.6374319   0.02406832    3.9144274    28372.625 
  268000    2.6473175  0.023679135    3.9144216    28372.625 
  269000    2.6478239  0.023129839    3.9144174    28372.625 
  270000    2.6558592  0.024337674    3.9144071    28372.625 
  271000    2.6656112  0.023707468    3.9144031    28372.625 
  272000    2.6545299  0.023538264    3.9144032    28372.625 
  273000    2.6649192  0.023472439    3.9144044    28372.625 
  274000    2.6519709  0.023572241    3.9143958    28372.625 
  275000      2.65038  0.023353639    3.9143929    28372.625 
  276000    2.6474756  0.023328218    3.9143916    28372.625 
  277000    2.6521347  0.023449125     3.914372    28372.625 
  278000    2.6544513  0.023637727    3.9143844    28372.625 
  279000    2.6465011  0.024071243    3.9143902    28372.625 
  280000    2.6484239   0.02355349    3.9143828    28372.625 
  281000    2.6556975  0.023333258      3.91439    28372.625 
  282000    2.6502098  0.023384868    3.9143924    28372.625 
  283000    2.6425147  0.023972483    3.9143708    28372.625 
  284000    2.6418416  0.025066632    3.9143909    28372.625 
  285000     2.652477  0.023555977    3.9143857    28372.625 
  286000    2.6559253  0.023045988    3.9143885    28372.625 
  287000    2.6574201  0.023343141    3.9143902    28372.625 
  288000     2.644941  0.024384206    3.9143899    28372.625 
  289000    2.6490123  0.023924316    3.9143088    28372.625 
  290000    2.6626324  0.024015634    3.9143842    28372.625 
  291000    2.6502873  0.023231666    3.9143883    28372.625 
  292000    2.6504372  0.023517703    3.9143867    28372.625 
  293000    2.6500935  0.024291069    3.9143816    28372.625 
  294000    2.6372201  0.025039886    3.9144152    28372.625 
  295000    2.6450881  0.023663121    3.9144029    28372.625 
  296000    2.6393288  0.023589605    3.9144088    28372.625 
  297000    2.6285241  0.025647093    3.9144215    28372.625 
  298000    2.6589826  0.023571106    3.9144091    28372.625 
  299000    2.6530988  0.024831699    3.9143991    28372.625 
  300000    2.6558655  0.023658444    3.9144202    28372.625 
Loop time of 1.62611 on 1 procs for 100000 steps with 256 atoms

Pair  time (%) = 0.353755 (21.7547)
Neigh time (%) = 0.615576 (37.8557)
Comm  time (%) = 0.21539 (13.2457)
Outpt time (%) = 0.00317287 (0.19512)
Other time (%) = 0.438218 (26.9488)

Nlocal:    256 ave 256 max 256 min
Histogram: 1 0 0 0 0 0 0 0 0 0
Nghost:    171 ave 171 max 171 min
Histogram: 1 0 0 0 0 0 0 0 0 0
Neighs:    106 ave 106 max 106 min
Histogram: 1 0 0 0 0 0 0 0 0 0

Total # of neighbors = 106
Ave neighs/atom = 0.414062
Neighbor list builds = 7993
Dangerous builds = 18
#	run             	10000
	unfix 			1

#------------ kappa -------------------------------------------------------------------------
log 	log_kappa_${iseed}.lammps
log 	log_kappa_4.lammps
