	reset_timestep  	0
	fix 			1 all nve
	compute   		myKE all ke/atom
	compute   		myPE all pe/atom
	compute   		myStress all stress/atom virial
	compute   		flux all heat/flux myKE myPE myStress
	variable  		Jx equal c_flux[1]/vol
	variable  		Jy equal c_flux[2]/vol
	variable  		Jz equal c_flux[3]/vol
	fix       		JJ all ave/correlate $s $p $d c_flux[1] c_flux[2] c_flux[3] type auto file J0Jt_${iseed}.dat ave running
	fix       		JJ all ave/correlate 5 $p $d c_flux[1] c_flux[2] c_flux[3] type auto file J0Jt_${iseed}.dat ave running
	fix       		JJ all ave/correlate 5 200000 $d c_flux[1] c_flux[2] c_flux[3] type auto file J0Jt_${iseed}.dat ave running
	fix       		JJ all ave/correlate 5 200000 1000000 c_flux[1] c_flux[2] c_flux[3] type auto file J0Jt_${iseed}.dat ave running
	fix       		JJ all ave/correlate 5 200000 1000000 c_flux[1] c_flux[2] c_flux[3] type auto file J0Jt_10.dat ave running
#	fix       		JJ all ave/correlate $s $p $d c_flux[1] c_flux[2] c_flux[3] type auto ave running
#	dump			JJ all custom 1000000 J0Jt.dat f_JJ[3] f_JJ[4] f_JJ[5]
	compute 		myDis all msd
	thermo_style 		custom step temp press vol c_myDis[4] v_Jx v_Jy v_Jz
	thermo			1000
	timestep		${dt}
	timestep		0.0020000000000000000416
	run			2000000
Memory usage per processor = 3.08201 Mbytes
Step Temp Press Volume myDis[4] Jx Jy Jz 
       0    2.6445893  0.023663414    28372.625            0 0.0034658242 -0.0059751757 0.0012712573 
    1000    2.6502905  0.023634537    28372.625    29.992866 0.0029116491 -0.004216664 0.0014423265 
    2000     2.646541  0.023238115    28372.625    114.62118 0.0027194606 -0.0045385935 0.0031613035 
    3000    2.6520999  0.024457608    28372.625     247.8427 0.0019981035 -0.0024731216 0.0057352859 
    4000    2.6449936  0.023239078    28372.625    419.40872 0.0020676461 0.00022625866 0.0024866742 
    5000    2.6604672  0.024058351    28372.625    620.24977 0.0035929203 0.0002493319 -0.002658249 
    6000    2.6492547  0.023398949    28372.625    850.48535  0.001491266 0.0013159328 -0.0068582524 
    7000    2.6644968  0.023449988    28372.625    1089.9958 0.0025156711 1.4369742e-05 -0.0033923055 
    8000    2.6552904  0.023932651    28372.625    1341.9519 0.0011146195 0.0022929618 0.0028939874 
    9000    2.6510339  0.023739531    28372.625    1609.5268 0.0019316072 0.0015934707 0.0028779433 
   10000    2.6488948  0.023885881    28372.625     1907.009 0.0015168076   0.00103689 0.0047745864 
   11000    2.6489016  0.023780057    28372.625      2233.81 0.0034951177 -0.00014051158 0.0057707555 
   12000     2.645698  0.023792872    28372.625    2591.1824 -0.00031254447 0.0035631207 0.0061710914 
   13000    2.6352725  0.024820071    28372.625    2967.7097 -0.0018560455 0.0023385842 0.0020387443 
   14000    2.6473579  0.023790485    28372.625    3354.8703 0.0011514053   0.00248979 0.0014589585 
   15000    2.6295627  0.024719446    28372.625    3764.9959 0.0093900524 -0.0035725541 0.0041597174 
   16000    2.6397238  0.024597586    28372.625    4174.3766 0.0048117314 -0.0035295039  0.001107618 
   17000    2.6536423  0.023895741    28372.625    4604.2312 0.0052546103 2.9558077e-05 0.0022222983 
   18000     2.651361  0.023778525    28372.625    5038.0689 0.0028692955 0.0011808196 0.0024845993 
   19000    2.6521882   0.02336227    28372.625    5480.1112 0.0027754683 0.0031818471 0.0038599287 
   20000    2.6378305  0.024730514    28372.625    5900.3724 0.0025162384 0.0038686552 0.0092296934 
   21000    2.6652221  0.023963715    28372.625    6320.9318 0.0054811138 0.00096732609 0.0052708333 
   22000    2.6460118  0.024665284    28372.625    6747.4444 0.0075753551 0.0045114741 0.0086631161 
   23000    2.6511822  0.023740369    28372.625    7188.5601 0.0052621712 0.0014637218 0.0078213349 
   24000    2.6513623   0.02364133    28372.625    7639.8837 0.0031714404 -0.0015099217 0.0067847534 
   25000    2.6649201   0.02333116    28372.625    8069.9718 0.00087002392 -0.0007276048 0.0043224569 
   26000      2.64603  0.023530675    28372.625    8508.5623 0.00091713939 -0.0012271582 0.0054190736 
   27000     2.658475  0.023966325    28372.625     8963.588 -0.00071162986 -5.4263145e-05  0.002921392 
   28000    2.6443391  0.024197208    28372.625    9391.3406 4.1326794e-05 0.00070849398 0.00093747183 
   29000    2.6395288  0.023656646    28372.625    9800.7577 -0.00024623982 -0.0015893016 0.00080891419 
   30000    2.6387987  0.023816499    28372.625    10222.088 0.0029048123 -0.00043048717 0.0023483886 
   31000    2.6602097  0.023847066    28372.625    10630.056 0.0058989569 -0.00090182461 0.0032879548 
   32000    2.6520665  0.023744311    28372.625    11047.784 0.0044430606 -0.0028993879 0.0025021552 
   33000    2.6564779  0.023273685    28372.625    11489.671 0.0025049186 -0.0050939801 -0.00013313801 
   34000    2.6451805   0.02382589    28372.625    11923.857 0.0031494432 -0.0054269962 0.0035800022 
   35000    2.6488501  0.023668041    28372.625    12371.361 0.00054806766 -0.0078700666 0.0012484157 
   36000    2.6584639  0.023778361    28372.625    12850.608 -0.0010257059 -0.0062440763 -0.00026221824 
   37000    2.6527356  0.024069384    28372.625    13355.431 0.0016389437 -0.0080425335 0.0028720695 
   38000    2.6467347  0.023647945    28372.625    13886.008 0.0032531945 -0.0039124752 0.0028722658 
   39000    2.6563736  0.024181901    28372.625    14443.908 0.0071507403 -0.004567377 0.0058271459 
   40000    2.6573073  0.023321221    28372.625    15001.808 0.0041650329 -0.0036501202 0.0051532046 
   41000    2.6591008  0.023377788    28372.625     15580.33  0.005310339 -0.0028593735 0.0029585318 
   42000    2.6370032  0.023817315    28372.625    16121.327 0.0056657359 -0.0002559989 0.0020663476 
   43000    2.6613524  0.023324632    28372.625    16632.278 0.0041293203 -0.00044306385  0.004573474 
   44000    2.6560425  0.023373285    28372.625    17105.108 0.0023100704 0.00055335425 0.0044916123 
   45000    2.6438095  0.023602209    28372.625    17604.849 0.0029469033 0.0027284272 0.0015763427 
   46000     2.657798  0.023407725    28372.625    18134.028 -0.001496393 -0.0029348676 0.0026695404 
   47000    2.6491894  0.023466247    28372.625    18636.756 -0.0007715644 -0.0034561602   0.00301991 
   48000     2.638114  0.023749636    28372.625    19119.784 7.0111726e-06 -0.0022777816 0.0031658725 
   49000    2.6520179  0.023246703    28372.625    19644.234 -0.001977936 -0.0027827701 0.0015518865 
   50000    2.6583518  0.024023245    28372.625    20203.104 -0.00094209147 0.00019123295 0.0010359312 
   51000    2.6466326  0.023762104    28372.625    20767.464 -0.0013832843 -0.0028918837 -0.0010713173 
   52000    2.6497353  0.023460018    28372.625    21311.803 -0.0028831396 -0.0044829329 -1.2174255e-05 
   53000    2.6452259  0.024023524    28372.625    21840.172 -0.00088209211 -0.0021050473 0.0016001285 
   54000     2.652798  0.023971551    28372.625    22365.702 -9.7265722e-05 -0.0032463874 -0.0040403083 
   55000    2.6507686  0.023722834    28372.625    22886.368 -0.0024456452 -0.0014682998 -0.00010635955 
   56000     2.648297  0.024067429    28372.625     23362.89 0.0044863009 -0.004806747 -0.0045936202 
   57000    2.6454602  0.023627536    28372.625    23824.804 0.0023535504 -0.0010529137 -0.0041790964 
   58000    2.6525379  0.023389586    28372.625    24287.045 0.0023431818 -0.0027262246 -0.0020157765 
   59000    2.6616412  0.024371225    28372.625    24757.546 0.0032385708 -0.0018423705 0.00080614387 
   60000    2.6583324  0.023689592    28372.625    25214.132 0.0018201821 -0.0073026343 -0.00060934449 
   61000    2.6692863  0.023690915    28372.625    25649.499 -0.00017893814 -0.0061701639 0.00082828542 
   62000    2.6636867  0.023459196    28372.625    26141.427 0.0031592723 -0.0036009826 -0.00069700252 
   63000     2.659259  0.023834372    28372.625    26612.395 0.0043867384 -0.0016157178 -0.0031512002 
   64000    2.6449959  0.024109365    28372.625    27114.681 0.0028596516 0.0013716824 -0.0034961787 
   65000    2.6606984  0.023534904    28372.625    27565.044 0.0028320839 0.0023476018 -0.0032372783 
   66000    2.6491012  0.023990106    28372.625    28002.888 0.0040640421 0.00027152805 -0.0013747909 
   67000    2.6510207  0.023708474    28372.625    28457.533 0.0029731197 0.0052798659 -0.0011183421 
   68000    2.6350854  0.024263925    28372.625    28912.768 0.0013418572 0.0055377568 0.00070613726 
   69000    2.6620511  0.023162465    28372.625    29338.601 0.0028257281 0.0043006774 -0.0037286079 
   70000    2.6483895  0.023391759    28372.625    29700.547 0.00018469191 0.0041990082 -0.0052463068 
   71000    2.6638885  0.023942328    28372.625    30054.589 0.0029618154 0.0057089726 -0.0041933591 
   72000    2.6507945   0.02360352    28372.625    30401.784 0.0025512668 0.0019099524 -0.0036785471 
   73000    2.6393782  0.024878453    28372.625    30736.484 0.0023652226 0.0021703294 -0.0060364855 
   74000    2.6641324  0.023421832    28372.625    31071.118 0.0026327557 0.0020936035 -0.0017945118 
   75000    2.6527577  0.024216113    28372.625    31420.232 0.0025312873 0.0022717619 -0.0019496724 
   76000    2.6489805  0.024166934    28372.625    31807.919 0.0038083225 0.0026241503 -0.00060614822 
   77000    2.6659794  0.023390862    28372.625    32207.515 0.0048829127 0.0056462427 -0.001541036 
   78000    2.6548326  0.023784663    28372.625    32574.837 0.0059175186 0.0016642024 0.0026139897 
   79000    2.6591563  0.023132818    28372.625    32999.621 0.0057833306 0.0017511537 0.0032186753 
   80000    2.6574317  0.023396759    28372.625    33433.708 0.0038073094 0.0014014204 0.00082541716 
   81000     2.657521   0.02359005    28372.625    33806.779 0.0042304766 0.0010675745 -0.00026452791 
   82000    2.6527127  0.023309817    28372.625    34189.045 0.0030582377 0.0056485786 -0.003401399 
   83000    2.6592483  0.023395896    28372.625    34602.942 0.0054365178 0.0071678908 -0.0023119663 
   84000    2.6496578  0.023957611    28372.625    35027.131 0.0031011801  0.006750856 -0.0016745242 
   85000    2.6586401  0.023485511    28372.625    35430.972 0.0053683243 0.0050425077 -0.0020268478 
   86000    2.6603797   0.02324797    28372.625    35869.475  0.003361798 0.0075824862 -0.0036197223 
   87000    2.6589864  0.023540812    28372.625    36325.605 0.0024039998   0.01036788 -0.0057188077 
   88000    2.6532488  0.024621048    28372.625     36805.23 0.0024546601 0.0088639966 -0.0020073321 
   89000    2.6769301  0.023941837    28372.625    37325.783 0.0039293319  0.009756732 -0.0016995777 
   90000    2.6506126  0.024461963    28372.625    37896.727 0.00055324996 0.0068832178 -0.00043669786 
   91000    2.6595829  0.024217687    28372.625    38525.309 0.0010269631 0.0076415222 -0.0035645892 
   92000    2.6440858  0.023631691    28372.625     39138.27 0.0033817154 0.0089794766 0.00052928968 
   93000    2.6513498  0.024471656    28372.625    39789.012 0.0062374849 0.0042376087 0.0016086116 
   94000    2.6651395  0.023584279    28372.625     40442.05  0.001929742 0.0028017632 0.0012224534 
   95000      2.65449  0.023306801    28372.625    41064.978 0.0026696887 0.0039454739 0.0041102548 
   96000    2.6661089  0.023516054    28372.625    41644.324 0.00079408871 0.0044534118 0.0047259883 
   97000    2.6533153  0.023620011    28372.625     42214.34 0.0032783014 0.0048775931 0.0039735711 
   98000    2.6549434  0.023898193    28372.625    42728.497 0.0023817004 0.0045578642 0.0072157084 
   99000    2.6337074  0.025822928    28372.625    43224.293 0.0041578542 0.0040055572 0.0034940843 
  100000    2.6520927  0.023863238    28372.625    43722.169 0.0032869488 0.0043799618 0.0041434914 
  101000    2.6498652  0.023369978    28372.625    44190.719  0.004054547  0.006759543 0.0056246176 
  102000    2.6353371  0.024868059    28372.625    44591.819 0.0017041179 0.0086120446 0.0044409179 
  103000    2.6465364  0.023201302    28372.625    45001.262 0.00020657732 0.0045534115 0.0029755192 
  104000    2.6483431  0.023640062    28372.625    45407.411 0.00012158675 0.0036728503 -0.0026844213 
  105000    2.6392364  0.024234958    28372.625    45814.835 -0.0038375303 0.0042364635 0.00055540664 
  106000     2.653112   0.02383774    28372.625    46235.789 -0.00065683413 0.0040222844 -0.001986638 
  107000     2.651599  0.023841459    28372.625    46659.016 -0.0007819519 0.0029599383 -7.3205023e-05 
  108000    2.6470033  0.023660462    28372.625    47079.955 -0.0020244327 0.0024598053 0.0010309692 
  109000    2.6556257  0.023863089    28372.625    47517.917 -0.0023016837 0.0018387869 -0.00019020996 
  110000     2.657862  0.023484657    28372.625    47930.147 -0.0026892909 0.0012140363 0.0019858647 
  111000    2.6485725  0.023267439    28372.625    48363.829 -0.0050521886 0.0016209779 0.0014090524 
  112000    2.6356914   0.02495357    28372.625    48827.047 -0.0011695089 -0.00048556879 0.00089748104 
  113000    2.6462491  0.023541701    28372.625    49309.228 -0.0019980082 0.00060922416 -0.0009610029 
  114000    2.6451093  0.024030641    28372.625        49809 -0.0016053272 0.0014718683 -0.0017331629 
  115000    2.6507701  0.023699086    28372.625    50258.123 -0.0028199517 0.00023368248 -0.0043246608 
  116000    2.6479679   0.02385525    28372.625    50785.141 -0.0024448837 -0.0026764679 -0.00093586866 
  117000    2.6595896  0.023972963    28372.625    51372.889 -0.0050008282 -0.00031375279 -0.0014579592 
  118000    2.6479098  0.024113984    28372.625    51973.431 -0.0047616166 0.0017752927 -0.0011828301 
  119000    2.6295048  0.025056277    28372.625     52605.93 -0.00054742857 0.00080181574 0.0016328645 
  120000    2.6564805  0.024052591    28372.625    53189.078 -0.0016768098 -0.00067415179 -0.0014350658 
  121000    2.6547263  0.024208897    28372.625    53736.532 -0.00063745615 -0.0010371412 0.0011011083 
  122000    2.6494221  0.023155385    28372.625    54244.821 -0.0039420504 0.0010050068 0.0019659353 
  123000     2.645547  0.023803165    28372.625    54734.134 -0.005398546 0.0023616627 0.0031638086 
  124000    2.6639673  0.023293622    28372.625    55212.201 -0.0035930675 0.0024002525 0.00063062124 
  125000    2.6545066  0.023506919    28372.625    55698.365 -0.0010637562 0.0013690907 0.00016781924 
  126000    2.6459099  0.023492342    28372.625    56166.254 0.0025388997 0.0029841355 0.00084669734 
  127000    2.6408471  0.024119279    28372.625    56614.057 0.0027913641 0.00093855076 0.0038937745 
  128000     2.647911  0.023999175    28372.625    57049.828 -0.0014385044 0.0073576736  0.003574524 
  129000    2.6380929  0.025243674    28372.625    57514.429 -0.0023780003 0.0075166348 0.0070744265 
  130000    2.6343823  0.024763128    28372.625    57894.951 0.00094079168 0.0055942931 0.0025116547 
  131000    2.6588767  0.024030991    28372.625    58300.412 -0.00075366439 0.0048604473 0.0028590252 
  132000     2.659246  0.023714969    28372.625    58695.042 -0.0002814126 0.0039480418 0.0036203699 
  133000    2.6510399  0.023718961    28372.625    59104.602  0.001554428 0.0028574896 0.0014242432 
  134000    2.6603766  0.023270589    28372.625    59598.725 0.0030947838 0.0034610728 0.0013282774 
  135000    2.6566573  0.023624695    28372.625    60127.821 0.0015705304 0.0050478095 0.0046315431 
  136000    2.6567776  0.023882243    28372.625    60670.879 -0.0015688288 0.0028574527 0.0050666509 
  137000    2.6416451  0.024380094    28372.625    61231.037 0.0051247954  0.005755241 0.0049242601 
  138000    2.6470369  0.023666172    28372.625    61777.797 0.0011358369 0.0018403183 0.0027983546 
  139000    2.6490108  0.023591819    28372.625    62266.895 0.0050479759 0.0022878331 0.0054267897 
  140000    2.6546369  0.024403002    28372.625    62730.473 0.0068544269 0.0011952947 0.0048668368 
  141000    2.6438728  0.024006623    28372.625    63233.083 0.0049559283 0.0011064106 0.0065644284 
  142000    2.6482291  0.024144548    28372.625    63734.839 0.0062052762 0.0010290312 0.0026956909 
  143000    2.6396026  0.024312515    28372.625    64190.251 0.0060544185 -0.0021440155 0.0038103499 
  144000     2.654117  0.023574345    28372.625    64615.095 0.0057473324 0.0013653311 0.0023323929 
  145000    2.6507033   0.02372746    28372.625    64990.367 0.0047477681 -0.0010024287 0.0039465632 
  146000    2.6552956  0.023773689    28372.625    65280.618 0.0056388488 -5.8702301e-05 0.0039079155 
  147000    2.6484071  0.023703249    28372.625    65604.077 0.0040913969 0.0008907388  0.003293694 
  148000    2.6383515  0.023800396    28372.625    65982.054 0.0042871453 -0.0014652369 0.0030277663 
  149000    2.6532711  0.023965967    28372.625    66380.559 0.0025931802 0.0022513223 0.0027790325 
  150000    2.6356663  0.025619222    28372.625    66799.777 0.0066433082 0.0036358131 0.00015390194 
  151000    2.6553918  0.023475064    28372.625    67313.552 0.0055340257 -0.0013423879 -0.0023020987 
  152000    2.6527558  0.024229284    28372.625    67879.154 0.0074642819 -0.003504933 -0.0004693108 
  153000    2.6654715  0.024235694    28372.625    68395.175 0.0030212677 -0.0034694971 -0.0025216568 
  154000    2.6546687  0.023338176    28372.625    68929.426 0.0064275811 -0.00088044422 -0.0027164853 
  155000    2.6478336  0.023962594    28372.625    69410.641 0.0066764334 -0.00052184136 -0.0035255151 
  156000    2.6586236  0.023727988    28372.625    69869.553 0.0054967336 -0.0035066166 -0.0012939133 
  157000    2.6505351  0.023227192    28372.625    70321.777 -0.00015087079 -0.00013608524 -0.00017318286 
  158000    2.6304641  0.025113713    28372.625    70756.351 -0.0067270524 0.0082766691 0.00066366154 
  159000    2.6528386  0.023219846    28372.625    71199.106 -0.0012525999 -0.00033931426 -0.00079922126 
  160000    2.6372702  0.024322918    28372.625    71662.467 0.0011705803 0.0034801842 -0.00034696457 
  161000    2.6543849  0.024598098    28372.625    72070.168 -0.0016537676 0.0012690637 0.00060197432 
  162000    2.6652498  0.023526008    28372.625    72481.488 -0.00031692092 8.730224e-05 0.0016732787 
  163000    2.6472449  0.024151591    28372.625    72902.994 -0.0038720551 0.0049646193 0.0069168641 
  164000    2.6539292  0.023975515    28372.625    73305.681 0.0031095774  0.004569288 0.0037957727 
  165000     2.651254  0.023237874    28372.625    73754.287 -0.0010882061 0.0024084943  0.002459652 
  166000    2.6464684  0.023731735    28372.625    74175.783 0.0024268075 0.0025570104 0.0005835676 
  167000     2.651548  0.023351851    28372.625    74579.928 0.0012551557 0.0010676186 0.00054229351 
  168000    2.6552525  0.023510122    28372.625     74987.11 0.0006248968 0.00089796341 -0.0017484587 
  169000    2.6693811  0.023661907    28372.625    75396.742 0.00067956637 -0.0019084576 -0.0010089096 
  170000    2.6471021  0.023651819    28372.625    75800.638 -0.00087228885 -0.00083830096 -0.00052102474 
  171000     2.634851  0.024723207    28372.625     76240.51 -0.0025126141 -0.0012267458 0.0011235749 
  172000    2.6563295  0.023203595    28372.625    76701.367 -0.0016933441 -0.0013210103 -0.0017881747 
  173000      2.66006  0.023089818    28372.625    77159.492 -0.0017235799 0.00019019633 0.0009052507 
  174000    2.6588251  0.023568926    28372.625    77635.416 -0.0015492364 -0.00075179412 0.0012081988 
  175000    2.6557747  0.024371773    28372.625    78064.988 -0.0010892658 -0.0015614572  0.002360926 
  176000    2.6552517  0.023782169    28372.625    78500.748 -0.0026710194 -0.0020900973 0.0058003647 
  177000    2.6612539  0.024116622    28372.625    78926.878 -0.00058924811 -0.0053053165 0.0031690043 
  178000    2.6487005  0.023402959    28372.625     79274.42 0.00042700952 -0.0023717094 0.0012294165 
  179000    2.6508375  0.024503429    28372.625    79588.349 0.00046391313 -0.00073877213 0.00054849661 
  180000     2.657836  0.023086066    28372.625    79955.716 0.0024996908 -0.0013390064 -0.0031015044 
  181000    2.6485261  0.024031648    28372.625    80369.292 0.0034078323 0.0017604966 -0.0031965087 
  182000    2.6409284  0.023484541    28372.625    80792.335 -0.0011375665 0.0019702282 -0.0052134206 
  183000    2.6501857  0.023634697    28372.625    81160.312 0.00026295284 -0.0012502942 -0.0049962574 
  184000    2.6404674  0.023670725    28372.625    81548.291 -0.0038747472 -0.0010725137 -0.0078739346 
  185000    2.6495983  0.023931785    28372.625    81965.761 -0.003375663 0.0019067677 -0.0093265714 
  186000    2.6542564  0.023614382    28372.625     82396.51 -0.0029358665 0.0018360575 -0.013504915 
  187000    2.6349275  0.026078439    28372.625    82817.836 0.0033846625 0.0053225728 -0.012782889 
  188000    2.6573535  0.023283945    28372.625    83351.896 4.9229677e-05 0.0026617553 -0.010835069 
  189000    2.6512251  0.024016417    28372.625    83868.012 -0.0037563818 0.0024013484 -0.011764374 
  190000    2.6355889  0.024476887    28372.625    84398.862 -0.0065321185 0.0073789182 -0.0083377539 
  191000    2.6575466   0.02379081    28372.625     84894.39 -0.0086011798  0.011301978 -0.0058110568 
  192000    2.6629202  0.023665198    28372.625    85493.641 -0.0085254391 0.0073022834 -0.0080455265 
  193000    2.6684267  0.023550389    28372.625    86239.351 -0.0072848222  0.008495688 -0.0090192438 
  194000    2.6663092   0.02347654    28372.625    86974.173 -0.0045430991 0.0055542305 -0.0010839703 
  195000    2.6695143  0.023125873    28372.625    87568.981 -0.00090549963 0.0063438531 -0.0016701682 
  196000    2.6589875  0.023289296    28372.625    88067.451 7.2947689e-05 0.0059400887 -0.00037708131 
  197000    2.6556804  0.023610624    28372.625    88558.691 0.0016785066 0.0054402558 -0.00062566239 
  198000    2.6534802  0.024032169    28372.625    89086.693 0.00062047476 0.0060693849 0.0023966808 
  199000    2.6528605  0.024156762    28372.625    89558.256 0.0020970461 0.0061461357 -0.0015823983 
  200000    2.6490595  0.023778691    28372.625    90050.021 0.00047532977  0.003687098 0.00058522647 
  201000     2.652609  0.023675507    28372.625    90604.752 -0.002116626 -0.0012354519 0.0022726097 
  202000    2.6468513  0.023451379    28372.625    91167.793 -0.0020764523 -0.0033220082 0.0038875127 
  203000    2.6461207  0.023438134    28372.625    91614.993 -0.0012726991 -0.0054759665 0.0035649388 
  204000    2.6564135  0.023191206    28372.625    92031.666 -0.00036935148 -0.006862611 0.0041152587 
  205000    2.6526301  0.023399759    28372.625    92368.203 0.0012673645 -0.0032384345 0.0072839713 
  206000    2.6370185  0.023717449    28372.625    92659.577 0.0014756737 -0.00074357067 0.0057872835 
  207000    2.6500593  0.023159882    28372.625    93035.278 0.0057545276 -0.0013859492 0.0064514988 
  208000    2.6582449   0.02326048    28372.625    93424.136 0.0058120324 -0.00027244346 0.0081802986 
  209000    2.6540905  0.023234732    28372.625    93740.447 0.0089455546 0.0010463554  0.010006902 
  210000    2.6366131  0.024639592    28372.625    94066.601  0.011472569 0.0033852545  0.010602875 
  211000    2.6397407  0.023292489    28372.625    94466.735 0.0067591866 0.0037886679 0.0090837961 
  212000    2.6545373   0.02319051    28372.625     94890.47 0.0057622992 0.0038572433 0.0071076983 
  213000     2.647129  0.023442581    28372.625    95284.984 0.0048773577 -0.0035515108 0.0055893342 
  214000    2.6452331  0.023307685    28372.625    95733.128 0.0039476218 -0.0012889053    0.0064631 
  215000    2.6510189  0.023369318    28372.625    96250.128 0.0063117123 -0.00039107383 0.0063497706 
  216000    2.6493215   0.02419068    28372.625    96762.905 0.0062666775 -0.0021505513 0.0066323008 
  217000    2.6424428  0.024377094    28372.625    97364.685 0.0060392145 -0.0031320484 0.0069907584 
  218000    2.6573444  0.023524809    28372.625    97987.265 0.0073596879 -0.0007391205 0.0067231421 
  219000    2.6425396  0.024044528    28372.625    98626.279 0.0078223236 0.00094643066 0.0023223716 
  220000    2.6490731  0.024226236    28372.625    99323.963 0.0073489138 -0.0028029084 0.00061219779 
  221000    2.6493785  0.023642786    28372.625    100062.36 0.0082890405 -0.0017366242 -0.0017690356 
  222000    2.6399653  0.024843142    28372.625    100823.61  0.009912483 0.0023080565 -0.0092612509 
  223000    2.6419754  0.024594084    28372.625    101590.44 0.0046148413 -0.0077804806 -0.0041685789 
  224000    2.6447127  0.023821296    28372.625    102329.59 0.0081407867 -0.0023312464 -0.0047426606 
  225000    2.6404652  0.024359195    28372.625    103004.96 0.0062482422 -0.0040177832 -0.0059591557 
  226000    2.6551135   0.02303654    28372.625    103644.49 0.0032011542 -0.0022889897 -0.0037381161 
  227000    2.6505742   0.02369059    28372.625    104202.45 0.0010705976 -0.00073732488 -0.002977244 
  228000    2.6505132  0.024174511    28372.625     104692.2 -0.00027446293 -0.002251831 0.0031021699 
  229000    2.6527023  0.023343811    28372.625    105214.94 0.0015204733 -0.0029221915 0.0016795249 
  230000    2.6528751  0.023550533    28372.625    105766.59 0.0048407234 -0.0046581379 -3.5142856e-05 
  231000    2.6393866  0.023531748    28372.625    106326.37 0.0033044194 -0.0023050947 -0.0031270878 
  232000    2.6399469  0.024658026    28372.625    106861.99  0.006115345 -0.0053440263 -0.0037053436 
  233000    2.6442987  0.023966373    28372.625    107361.65 0.0053297614 -0.0049271739 -0.0046920172 
  234000     2.645918  0.024257775    28372.625    107834.48 0.0065964707 -0.0036931991 -0.0036026929 
  235000    2.6624446  0.023348484    28372.625    108309.56 0.0055523867 -0.0046118987 -0.0017884658 
  236000     2.647745  0.023425429    28372.625    108755.22 0.0062889721 -0.0056310718 -0.00061393228 
  237000    2.6529428  0.023459083    28372.625     109234.5 0.0038231554 -0.0052651918 -0.0012729278 
  238000    2.6392646  0.024824043    28372.625    109789.05 0.0031025906 -0.0062133583 -0.00065492994 
  239000    2.6541644  0.023712921    28372.625    110378.27 0.0017098018 -0.0044131529 -0.0032083882 
  240000    2.6453516  0.023757827    28372.625    110983.43  0.001001465 -0.0048034743 -0.0026986874 
  241000    2.6483744  0.024186008    28372.625    111674.26 -0.0010254724 -0.0028090779 -0.0023225929 
  242000    2.6584938  0.023255098    28372.625    112435.92 0.0013664319 -0.0039421852 -0.0013919979 
  243000    2.6465848  0.023231801    28372.625    113155.98 -0.00029527011 -0.0029671763 0.0016057899 
  244000    2.6526772  0.023777306    28372.625    113839.72   0.00210132 -0.0023337607 0.0021683669 
  245000    2.6552894  0.024081922    28372.625    114417.01 0.00033640745 -0.00029471921 0.0041126745 
  246000    2.6495591  0.023173251    28372.625    114949.61 0.0016910115 -0.00033848137 0.00069298475 
  247000    2.6532196  0.023700602    28372.625    115544.19 -0.00020140099 -0.0014082498  0.001124807 
  248000    2.6700023  0.023736411    28372.625    116073.45 -0.0024877149 -0.0026453563 -6.7644931e-05 
  249000    2.6502305    0.0245116    28372.625     116486.6 -0.0031840663 -0.00098903084 0.0020813871 
  250000    2.6349268   0.02608296    28372.625    116890.21 -0.014772105 -0.004214626 0.0086008077 
  251000    2.6463961  0.025277604    28372.625    117204.81 -0.0045587803 -0.0020128327 0.0061808935 
  252000    2.6531472  0.024492836    28372.625    117550.93 -0.0017019681 -0.0037443611 0.0061347127 
  253000    2.6454245  0.023343588    28372.625     117805.5 -0.0013270567 0.00011398632 0.0023298938 
  254000    2.6458154  0.023805062    28372.625    117991.81 -0.0025457529 0.0013802702 0.0048487233 
  255000    2.6469491   0.02482868    28372.625    118138.05 -0.0023368193 0.0007499541 0.0066255831 
  256000    2.6472001  0.024202332    28372.625    118330.04 -0.0043748708 -0.0026485957   0.00294349 
  257000    2.6518254  0.023865001    28372.625    118542.96 -0.0010569922 0.0013364099 0.0047080689 
  258000    2.6704658  0.023121153    28372.625    118803.44 0.00044058684 0.0024744149 0.0041582624 
  259000    2.6507391  0.023337691    28372.625    119140.96 -0.0017482514 0.00067281585 0.0051733569 
  260000    2.6460228  0.023307105    28372.625     119414.5 0.00068157974 0.0018320325 0.0032995757 
  261000    2.6542822   0.02391963    28372.625    119721.68 0.0021653694 0.0030148397 0.0021905388 
  262000    2.6497663   0.02381055    28372.625    120113.42 0.0017802384 0.0020694879 0.0045263038 
  263000     2.660174  0.024012861    28372.625    120537.38 0.00016344132 0.0038846694 0.00078140294 
  264000    2.6463077  0.024245483    28372.625    120890.49 0.0026119595 0.0047654076 7.5548449e-05 
  265000    2.6598217  0.023451535    28372.625    121284.31 -0.001499506 0.0046398319 0.0019874983 
  266000    2.6471332  0.023326981    28372.625    121774.84 -0.0028991245 0.0031571407 -0.0033851239 
  267000    2.6659729  0.023706274    28372.625    122285.23 -0.0033918202 0.0032087927 -0.0028322152 
  268000    2.6556407  0.023350895    28372.625    122708.03 -0.0049258734 0.0032192694 0.00011104845 
  269000     2.648819  0.024511532    28372.625       123123 -0.0078922729 0.0029068299 0.00079305894 
  270000    2.6491544  0.023449885    28372.625    123514.33 -0.0075995263 0.0030413245 -0.0007893481 
  271000     2.655462  0.023332494    28372.625    123891.09 -0.0081334291 0.0011308846 0.0006869319 
  272000    2.6522972  0.023549888    28372.625    124211.99 -0.0072428324 -3.3793152e-05 -0.00040773095 
  273000    2.6529411  0.024057106    28372.625     124487.3 -0.0070420635 -0.0018317203 -0.0020682398 
  274000    2.6488088  0.023451583    28372.625    124776.99 -0.0051368681 -0.0014295786 -0.0018932639 
  275000    2.6594318  0.023432032    28372.625    125104.15 -0.0038381353 -0.0031749945 0.0032213744 
  276000    2.6538325  0.023400438    28372.625    125509.88 -0.0029981487 0.00054252393 0.00030207806 
  277000    2.6445216  0.023646349    28372.625     125942.3 -0.0035236775 0.0030647044 0.0014477981 
  278000    2.6611307  0.023767927    28372.625    126428.78 -0.0040812098 0.0040175193 -0.00012938903 
  279000    2.6582446  0.023180555    28372.625    126916.15 -0.0062479112 0.0043914681 -0.0012532154 
  280000    2.6393262  0.023249855    28372.625    127335.95 -0.004308637 0.0036612341 -0.00012044795 
  281000    2.6597573  0.023760153    28372.625     127755.3 -0.0050846026 0.0040279953 0.0011388627 
  282000    2.6564821  0.023393354    28372.625     128177.2 -0.0046622427  0.004619676 -0.0015973762 
  283000    2.6642122  0.024150276    28372.625    128573.41 -0.0008673449 0.0040418582 -0.0029627015 
  284000    2.6528271  0.023908635    28372.625    129018.37 -0.0047201225 0.0056819677 -0.0026224417 
  285000    2.6603258  0.024082868    28372.625    129491.76 -0.0046588066   0.00239272 -0.0036660541 
  286000    2.6540063   0.02390651    28372.625    130024.77 -0.005204143 0.0025478598 -0.0035930312 
  287000    2.6555476   0.02372821    28372.625    130634.45 -0.0034029596 0.0026679871 8.4426932e-05 
  288000    2.6527099  0.023747307    28372.625    131277.21 -0.0020958504 0.00093081626 -0.0026030664 
  289000    2.6276329   0.02464002    28372.625    131828.85 -0.00027383325 -0.0021158551 -0.0048847969 
  290000    2.6636774  0.023784679    28372.625    132314.41 -0.00044318831 -0.00072733338 -0.0013961602 
  291000    2.6550769  0.023198562    28372.625    132722.05 -0.00065250459 0.0002446458 0.0012873513 
  292000     2.650342  0.023539038    28372.625    133185.44 -0.00058838204 -0.0016087621 0.0019390984 
  293000     2.644387  0.023322403    28372.625    133702.61 -0.0017793804 0.00094444339 0.0020344216 
  294000    2.6537741  0.023308374    28372.625    134316.47 -0.0026684218 -0.00046125305 0.0030767399 
  295000    2.6517831  0.023598676    28372.625    134999.07 -0.0014452348 -0.001570645 0.0017406507 
  296000    2.6511351  0.024825311    28372.625    135647.19 -0.0049655139 -0.0012806864 0.0001487253 
  297000    2.6505949  0.023251096    28372.625    136335.41 -0.0034069707 -0.0034305987 0.0026452509 
  298000    2.6633132  0.024000734    28372.625    137002.03 -0.0045048517 -0.00028023414 0.0042110661 
  299000    2.6517754  0.023237416    28372.625     137662.8 -0.0021311646 -0.0017224576 0.0033077774 
  300000    2.6583619  0.024955077    28372.625    138456.81 -0.0033273116 0.00010875178 -0.002976635 
  301000    2.6434374   0.02491705    28372.625    139036.06 -0.00019479901 -0.0037194488 -0.0028109063 
  302000    2.6465486  0.025028212    28372.625    139567.79 -0.0022775436 0.0078722621 0.0013210715 
  303000    2.6623092  0.023650103    28372.625    140162.77 -0.0021737545 -0.0019793641 -0.0039088303 
  304000      2.63959  0.026290958    28372.625    140728.31 -0.0022896925 -0.0025773328 -0.0019816673 
  305000    2.6686416  0.023524574    28372.625    141346.72 -0.0041678443 -0.0031463707 -0.0044372883 
  306000    2.6589984  0.023037433    28372.625    142047.18 -0.0055636357 -0.0035162722 -0.0051574742 
  307000    2.6419087   0.02395968    28372.625    142646.76 -0.0080697222 -0.0040045485 -0.0037013758 
  308000    2.6614506  0.023785385    28372.625     143088.7 -0.010610843 -0.0032939791 -0.005815231 
  309000    2.6369882  0.025538811    28372.625    143406.99 -0.0082475955 0.0048572388 -0.0024361657 
  310000    2.6498215  0.024005174    28372.625    143713.75 -0.0073427227 0.0036985038 -0.0012109757 
  311000     2.661298  0.023806001    28372.625    143990.55 -0.0054439506 0.0025536383 -0.0014738865 
  312000    2.6583575  0.024245136    28372.625    144260.99 -0.0044801775  0.003326256  0.003506456 
  313000    2.6639247  0.023329196    28372.625    144513.83 -0.0033655074 0.0038255382 -0.0035628963 
  314000    2.6569763  0.023250424    28372.625    144810.15 -0.0045731955 0.0039385718 0.00020668864 
  315000    2.6516072  0.023625146    28372.625    145060.73 -0.00023405525 0.0017321715 0.0036963949 
  316000    2.6604491  0.023276643    28372.625    145343.15 -0.0014765523 0.0015944687 0.0030963758 
  317000    2.6599813  0.023466493    28372.625    145669.25 -0.0028426594 0.0013146375 0.0060251631 
  318000    2.6605641  0.024042996    28372.625    146009.58 -0.003137947   0.00310507 0.0058790399 
  319000    2.6586796  0.023289542    28372.625    146443.03 -0.0019785311  0.002587566 0.0071285006 
  320000     2.648186  0.024397643    28372.625    146919.31 -0.0013376021 0.0017311005 0.0047178824 
  321000    2.6438132  0.024277205    28372.625    147483.11 -0.0012278166  0.006146843 0.0038213223 
  322000    2.6571374  0.023154883    28372.625    148077.01 0.00026765986 0.0041422754 0.0037601628 
  323000    2.6492926  0.024829199    28372.625    148654.91 0.0028299465 0.0032145988 0.00076714848 
  324000    2.6471316  0.024121451    28372.625    149112.46 0.0063602616 0.00039139835 -0.0013414838 
  325000    2.6535002  0.023363029    28372.625    149488.81  0.005500604 -0.00022485164 -0.00015864551 
  326000    2.6538798  0.023620384    28372.625    149896.29  0.003922145 0.0008560628 -0.0027074035 
  327000    2.6597558  0.023749755    28372.625    150266.83 0.0045169953 0.0042882275 -0.0064909632 
  328000    2.6361094  0.024285781    28372.625    150598.61 0.0037418196 0.0067188705 -0.0026460594 
  329000    2.6480227  0.023407356    28372.625    150940.39 0.00089457269 0.0062122386 -0.0053813879 
  330000    2.6463239    0.0234288    28372.625    151347.45 0.00086625233 0.0071654958 -0.00097778861 
  331000     2.647943  0.023509196    28372.625    151756.14 0.0045602577 0.0051189479 -0.0016710601 
  332000    2.6407643  0.023443886    28372.625    152172.05 0.0072127072 0.0077635367 -0.00024431193 
  333000    2.6613271  0.023760553    28372.625    152449.59 0.0042423476  0.006257222 -0.0015597347 
  334000    2.6469379  0.023365101    28372.625    152746.14 0.0053602755 0.0049935817 -0.00086341743 
  335000     2.654927  0.023277248    28372.625    153062.48 0.0052809551 0.0042531073 -0.0014758875 
  336000    2.6538535  0.023927938    28372.625    153394.86 0.0072996236 0.0058728743 0.00089615837 
  337000    2.6610673  0.024193188    28372.625    153722.05 0.0069876404 0.0040263257  0.001785458 
  338000    2.6557667  0.023916917    28372.625       153984 0.0085298474 0.0084057236 0.0040064232 
  339000    2.6473722  0.024190185    28372.625    154269.77 0.0080788168 0.0089383883 0.00071302216 
  340000    2.6463485  0.024106225    28372.625    154575.86 0.0036330132 0.0078637381 -0.0018854097 
  341000    2.6463621  0.023417717    28372.625    154900.48 0.0062799521 0.0040172333 -0.0025739173 
  342000    2.6427663  0.024263476    28372.625    155177.29  0.010861353 0.0031044444 -0.0043760799 
  343000    2.6433387  0.023832887    28372.625    155329.69 0.0057531145 0.0035340712 -0.0030284661 
  344000    2.6542531   0.02418568    28372.625     155615.6 0.0083500097  0.003498675 -0.0020029519 
  345000    2.6506563  0.023487892    28372.625     155837.2 0.0073781436 0.0032015134 -0.0020271845 
  346000     2.662247    0.0243893    28372.625    156058.85 0.0053750276 -0.00025450245 -0.0067969914 
  347000    2.6625675  0.024442999    28372.625    156375.64  0.010275485 0.0041249851 -0.0067933078 
  348000    2.6570222  0.023815897    28372.625    156756.55  0.009410128  0.002714251 -0.0066944708 
  349000    2.6590127  0.023590864    28372.625     157205.6 0.0077547349 0.0027815456 -0.0081616336 
  350000    2.6288197   0.02474914    28372.625    157735.97 0.0048866075 -0.00094500205 -0.0071394643 
  351000    2.6511855  0.023712499    28372.625     158289.1 0.0076715775 0.0031239534 -0.0067297271 
  352000    2.6553301  0.023336069    28372.625    158857.23 0.0064428463 0.0016210218 -0.0070653593 
  353000    2.6445497  0.024296396    28372.625    159455.56  0.010655742 0.00013734856 -0.0061999664 
  354000    2.6520074  0.023468181    28372.625    160070.35 0.0077325231 -0.0015410715 -0.0021933114 
  355000    2.6263268  0.025227026    28372.625    160701.41 0.0042962963 -0.0034033737 -0.0024717619 
  356000    2.6495188  0.023693994    28372.625     161247.8 0.0030124198 -0.0014440313 -0.0050957885 
  357000    2.6455719   0.02350596    28372.625    161756.85 0.0036514953 0.00094797583 -0.0040866889 
  358000    2.6472817  0.023935478    28372.625    162313.74  0.001802166 0.0024295528 -0.0036266798 
  359000    2.6617159  0.023419365    28372.625    162933.02 -0.0035566923 0.0054271385 -0.0069364705 
  360000    2.6425188  0.024722554    28372.625     163431.2 -0.0015190415  0.005221567 -0.0082743691 
  361000    2.6544874  0.023587015    28372.625    163904.62  -0.00154616 0.0067350856 -0.0047142172 
  362000    2.6537519  0.023783205    28372.625    164361.08 -0.0038338607 0.0040873643 -0.0034194071 
  363000    2.6542915   0.02335976    28372.625    164842.64 -0.0031755092 0.0074620522 -0.00055391948 
  364000    2.6430712  0.023551765    28372.625    165307.41 -0.00076913989  0.007115959 -0.0011341353 
  365000    2.6409589  0.023274094    28372.625    165674.21 -0.000584659 0.0093131281 -0.0021424867 
  366000    2.6453947  0.024048757    28372.625    166119.49 0.00055403048 0.0096757857 -0.00020618451 
  367000    2.6531698  0.023081152    28372.625    166647.38 -0.0034700832  0.010786485 -0.0024756434 
  368000     2.648318  0.023303342    28372.625    167120.74 -0.0028705586  0.008971427 -0.0017076341 
  369000    2.6512848  0.023671698    28372.625    167555.36 -0.00042158842 0.0071451392 -0.0035187615 
  370000    2.6499837  0.023981498    28372.625    168001.23 0.00058075648 0.0025873639 -0.0042730068 
  371000    2.6553272   0.02331057    28372.625    168533.22 0.0011810815 0.0035472698 -0.0023491874 
  372000     2.652011  0.023768994    28372.625    169128.57 0.00010122854 0.0022492194 -0.0026487805 
  373000    2.6543805  0.023438648    28372.625    169745.85 -0.0025142052 -0.0008424595 0.0018273092 
  374000    2.6496413  0.023696923    28372.625    170191.61 -0.0032378076 -0.00048101798 0.0027453697 
  375000    2.6400267  0.023275699    28372.625    170622.15 0.0024610245 -0.0040925811 0.0047272274 
  376000    2.6570529  0.023331463    28372.625    171057.84 0.0030599832 -0.002261997  0.005503172 
  377000    2.6437217  0.024385362    28372.625     171612.5 0.0014654001 -0.00067234919 0.0048591812 
  378000    2.6486598  0.023591722    28372.625    172182.69 -0.00031820327 -0.0013266808  0.005143958 
  379000    2.6601796  0.023269251    28372.625    172638.88 0.0043947591  0.003313283 0.0053605157 
  380000     2.653018   0.02345246    28372.625    173011.41 0.0028965559 0.0012824041  0.005095453 
  381000    2.6483964  0.023515792    28372.625     173377.3 0.0033582753 0.0002836511 0.0047357311 
  382000    2.6632325  0.024012782    28372.625    173765.16 0.00021906043   0.00371248 -0.0012391692 
  383000    2.6531931  0.024163585    28372.625    174149.88 0.00042054724 0.0026795603 -0.0013576707 
  384000    2.6594179  0.024061434    28372.625     174534.6 0.0024851657 0.0037576269 -0.0020798795 
  385000    2.6509947  0.023693585    28372.625    174977.89 0.0031963115 0.0040103274 -0.0012440621 
  386000    2.6550234  0.023133114    28372.625    175561.44 0.0024861681 0.0078735122 -0.0012976073 
  387000    2.6546782  0.023459118    28372.625    176284.26 0.0015159216 0.0063252926 -0.0020509677 
  388000      2.65009    0.0254565    28372.625    176961.92 0.00063449026 0.0084060736 -0.0015879899 
  389000    2.6503932  0.023315626    28372.625    177539.95 -0.00059389353 0.0053610497 -0.0047431136 
  390000    2.6625595  0.024095211    28372.625    178178.13 0.0008166288  0.006232964 -0.0031100161 
  391000    2.6472185   0.02327456    28372.625    178923.71 -0.0037391191 0.0035704656 -0.0050425889 
  392000    2.6495638  0.023169313    28372.625    179638.12 -0.0014008834  0.002955343 -0.0074794322 
  393000    2.6498945  0.024703554    28372.625    180277.73 -0.00035637938 4.5607375e-05 -0.0049483729 
  394000    2.6664785  0.024514288    28372.625    180906.43 -0.0016941993 0.0034138718 -0.0038191715 
  395000    2.6433742  0.023559015    28372.625    181654.86 -0.0022480725  0.001393005 -0.0040723238 
  396000    2.6479085   0.02350551    28372.625    182324.89 -0.0029177535 0.0011276275 -0.0015773892 
  397000    2.6485292  0.023195587    28372.625    182866.26 -0.0028885566 0.0024665751 -0.0015639588 
  398000     2.657309  0.023331139    28372.625       183291 -0.0023473812 0.0023499603 -0.00033755288 
  399000    2.6485299   0.02458427    28372.625    183805.47 -0.0041173752 0.0041441471  0.001062897 
  400000    2.6619028  0.023612701    28372.625     184369.6 -0.0031852118 0.0050983878 -0.0010484783 
  401000    2.6614793  0.024096109    28372.625    184898.43 -0.00059440029 0.0059134258 -0.001963924 
  402000    2.6433148  0.025127956    28372.625    185436.94 -0.0066751519 0.0085540996 0.00035153213 
  403000    2.6595212  0.024282316    28372.625    186055.01 -0.0062625582 0.0063315336 0.00044995075 
  404000    2.6692209  0.023869449    28372.625    186692.17 -0.0049788414 0.0058009844 -0.0039677586 
  405000    2.6514091  0.023485321    28372.625    187291.24 -0.0049079672 0.0014923603 -0.0017336513 
  406000    2.6495613  0.023143855    28372.625    187868.62 -0.0058276152 0.00035469156 0.00057133007 
  407000    2.6378343  0.024024063    28372.625    188393.68 -0.0017349209 -0.0021134188 -0.0018970273 
  408000    2.6502423  0.023156677    28372.625    188868.63 -0.0024499461 -0.00071495444 0.0012565931 
  409000    2.6540755  0.024825354    28372.625     189372.9 -0.0044882699 -0.00039966778 -0.00033141725 
  410000    2.6407782  0.025721059    28372.625    189932.75 5.6593179e-05 0.00047605764 0.0017352676 
  411000    2.6540187  0.023734588    28372.625    190500.58 -0.001594456 -0.0021443095 0.0035221052 
  412000    2.6270173  0.024492641    28372.625    191036.12 -0.00059687076 -0.0060374364 0.0056570168 
  413000     2.661431  0.023345774    28372.625    191443.18 -0.0009561292 -0.0010966309 0.0016000757 
  414000    2.6525053  0.023469029    28372.625    191914.88 -0.0027471602 -0.0024815953 0.0032739287 
  415000     2.636496  0.023966587    28372.625    192496.54 -0.0022621473 -0.0027722624 0.0049789349 
  416000    2.6540423  0.023261177    28372.625    193076.74 -0.0038397393 -0.00084812392  0.004123048 
  417000    2.6531392  0.024103244    28372.625    193663.43 -0.0067341343 -0.00063012003 0.0042346103 
  418000    2.6498158  0.023882634    28372.625    194221.81 -0.003504113 -0.0013986502 0.0041329254 
  419000    2.6604308  0.024374672    28372.625    194714.29 -0.0048718638 -5.205202e-06 0.0012662404 
  420000    2.6614967   0.02333221    28372.625    194999.87 -0.0042747127 -0.0035776592 -0.0011089067 
  421000    2.6527399  0.023680065    28372.625    195272.91 -0.0039953201 -0.005083183 0.00030644767 
  422000    2.6482206   0.02418722    28372.625    195549.26 -0.00096789365 -0.0070407703 -0.0024304951 
  423000    2.6679004  0.023652486    28372.625     195741.1 0.00056204894 -0.0037271113 0.0010078515 
  424000    2.6585817  0.024062827    28372.625    196008.27 -0.00018560968 -0.0051386494 -2.664474e-05 
  425000    2.6667877  0.023794928    28372.625    196269.73 -0.00034416486 -0.0020478164 -0.0010745322 
  426000    2.6495333  0.023572396    28372.625    196521.76 0.0024865181 -0.0034381771 -0.00052247669 
  427000    2.6612344  0.023581342    28372.625    196734.68 0.0029858767 -0.0033852832 -0.005056488 
  428000    2.6670967   0.02376118    28372.625    197016.13 0.0019643145 -0.00079545427 -0.0037422372 
  429000    2.6568981  0.023737527    28372.625     197268.1 -0.00081017346 -0.0017670837 -0.00089745212 
  430000    2.6443223  0.024144889    28372.625    197512.55 -0.0015211751 -0.00036930591 -0.001117301 
  431000    2.6576532  0.023643525    28372.625    197686.84 -0.0032724588 -0.0013184326 -0.0030914624 
  432000    2.6600113  0.023638108    28372.625    197944.25 -0.00034123827 -0.0011026355 -0.002711343 
  433000    2.6626741  0.023584884    28372.625    198237.16 -0.004147695 -0.00053287994 -0.0037549341 
  434000    2.6561169   0.02351058    28372.625    198542.17 -0.0030883084 -0.00093352483 -0.0045810326 
  435000    2.6498477  0.023611172    28372.625    198886.57 -0.0030102069 1.477623e-05 -0.0061067337 
  436000    2.6676253  0.023580569    28372.625    199243.93 -0.0017214643 0.0020994896 -0.001503179 
  437000     2.661094   0.02390134    28372.625    199551.95 -0.0016930448 -0.0018484508 -0.0031200615 
  438000    2.6509172  0.023415086    28372.625    199855.74 -0.00085873217 0.0007654425 -0.0044964246 
  439000    2.6566235  0.024517176    28372.625    200223.06 -0.0011466569 0.0027435978 -0.0023938369 
  440000    2.6719972  0.023700007    28372.625    200649.68 0.00014927215 0.0042601823 -0.0027582392 
  441000     2.655801  0.023174691    28372.625     201039.1 -0.0013667117 0.0037133199 -0.0016386008 
  442000    2.6536451   0.02320396    28372.625    201497.11 -0.0019408154 0.0042628398 -0.0014220332 
  443000    2.6495835   0.02361921    28372.625    202025.61 -0.0019025791 0.0041029426 0.00015848243 
  444000    2.6473295  0.023675894    28372.625    202541.84 -0.0048290627 0.0067351085 0.0017390368 
  445000    2.6524426  0.024083793    28372.625    203054.65 -0.0066147785 0.0046927922 0.00091557488 
  446000    2.6539256    0.0235387    28372.625    203612.95 -0.0064396283 0.0040509523 0.0012038334 
  447000    2.6625341  0.023962268    28372.625    204193.03 -0.0054930246 0.0050630912  0.001659709 
  448000    2.6521147  0.023198321    28372.625    204794.46 -0.0030302767 0.0054611225 0.0036966223 
  449000    2.6484452   0.02361752    28372.625    205393.62 -0.0018691629 0.0027712496 0.0046762442 
  450000    2.6523056  0.023148838    28372.625    206015.82 -0.0010158336 0.0038437222 0.0087266756 
  451000    2.6547874  0.023456746    28372.625    206497.36 -0.00061871678  0.002722211 0.0087833433 
  452000    2.6614865  0.023424747    28372.625    206899.19 -0.0011858718 -0.0011669633 0.0084344647 
  453000    2.6565802  0.023530744    28372.625    207193.03 -0.00093376902 -0.0035282733  0.010535254 
  454000    2.6602794  0.023729415    28372.625    207529.75 -0.00072522079 -0.0043462311 0.0087478979 
  455000    2.6467026  0.023994798    28372.625    207884.42 -0.0034208946 0.00096318584 0.0050835617 
  456000     2.648005  0.024078353    28372.625     208313.7 -0.0026593269 -0.0029671791 0.0043606444 
  457000    2.6472042  0.023927956    28372.625    208661.47 -0.00023308949 -0.0059557569 -0.0010313101 
  458000    2.6426337  0.024036142    28372.625    209067.97 0.00010407968 -0.0022569956 0.0023404116 
  459000     2.654815  0.023551196    28372.625    209349.99 -0.0005639498 -0.001553363 0.00064305672 
  460000    2.6472738  0.023596764    28372.625    209625.14 -0.0014673784 -0.001982383 0.0032890989 
  461000    2.6429851  0.023524516    28372.625    209986.03 -0.00072007477 -0.0027398875 0.0022096394 
  462000    2.6672119  0.024186726    28372.625    210304.93 0.00070155275  -0.00174869 0.00074553554 
  463000    2.6438686  0.023405175    28372.625    210719.16 0.0014826348 -0.00061159928 0.0021951952 
  464000     2.655015   0.02426716    28372.625    211171.94 0.0052886254 8.8400993e-05 0.0030971286 
  465000    2.6536479  0.023766687    28372.625    211599.13 0.0035284469 3.7347724e-05 0.0038912786 
  466000    2.6468356  0.023214939    28372.625    212128.48 -0.00037720136 -0.001758189 0.0036633707 
  467000    2.6387377  0.024256721    28372.625    212688.41 0.00097688022 -0.0029240494  0.003621967 
  468000    2.6590822  0.023238495    28372.625     213224.4 0.00029845687 -0.0036888529 0.0045391567 
  469000     2.658609  0.023706715    28372.625    213746.42 0.00031084057 -0.0028097513 0.0043210346 
  470000    2.6439369  0.024958146    28372.625    214312.06 0.0018796483 -0.0049930552 2.8995108e-05 
  471000     2.661642  0.024085305    28372.625    214862.19 -0.0026627824 -0.0029632837 0.00065281993 
  472000    2.6610492   0.02341148    28372.625    215375.94 -0.0025239157 -0.0015049891 0.0030123253 
  473000    2.6545234  0.023331541    28372.625    215889.82 -0.00093164093 -0.0042180284 0.0039129959 
  474000    2.6453879  0.023484083    28372.625    216498.23 0.00052898864 -0.0013620192 0.0037289085 
  475000    2.6520799  0.023226118    28372.625    217160.52 -0.0010146301 -0.00083503619 0.0037885366 
  476000    2.6507781  0.023911201    28372.625    217773.67 -0.0016114055 -0.0027462465 0.0055468633 
  477000    2.6499857  0.023508547    28372.625    218408.02 -0.0052997517 0.00043141111 0.0036660111 
  478000     2.647779  0.023834435    28372.625    218972.16 -0.0043333209 0.0029036285 0.0014612009 
  479000    2.6545628  0.023589074    28372.625     219414.7 -0.0073632613 0.0035344779 0.0030999486 
  480000    2.6432551  0.024682853    28372.625    219907.73 -0.0041870578 0.0059122977 0.00098927767 
  481000    2.6595394     0.023299    28372.625     220385.1 -0.0061994849 0.0012290628 0.0026355522 
  482000    2.6600665  0.023190854    28372.625    220906.85 -0.0053328944 0.0018799563 0.0017032485 
  483000    2.6614055  0.023923384    28372.625    221445.19 -0.0045889868 0.0018616588 0.0013991352 
  484000    2.6461852  0.023947909    28372.625    221974.61 -0.00033784677 0.00087180498 0.00077411619 
  485000    2.6501455  0.023468207    28372.625    222343.35 -0.0017408666 0.00094384543 0.0035145892 
  486000    2.6480444  0.023657724    28372.625    222632.59 -0.0021782592 0.00049967634 0.0038256188 
  487000    2.6443445  0.023399991    28372.625    222856.43 -0.0030499493 -0.00012280553 0.0003885046 
  488000    2.6412831  0.024072864    28372.625    223161.14 -0.0042673819    0.0013095 9.1111542e-05 
  489000     2.646854   0.02383453    28372.625    223563.79 -0.0062262224 0.0054183798 0.0033001005 
  490000    2.6564292  0.023067484    28372.625    224052.72 -0.0042280185 0.0054078739 0.0010506423 
  491000     2.652337  0.023359348    28372.625    224491.78 -0.0037834915 0.0053282207 5.9555336e-05 
  492000    2.6639949  0.023411178    28372.625    224888.57 -0.0029919216 0.0041684693 0.0012072893 
  493000    2.6602532   0.02345868    28372.625    225307.24 -0.0018174821 0.0070491223  0.004203281 
  494000    2.6476736  0.024846254    28372.625    225657.58 -0.0013287833 0.0068848052 0.0079208644 
  495000    2.6552055  0.024966181    28372.625    226060.64 0.0013702593 0.0048127037 0.0002652952 
  496000      2.65044  0.023456902    28372.625    226542.25 0.0010905668 0.0024958321 0.0026872696 
  497000    2.6499847  0.023623622    28372.625    227075.72 -0.00061043064 0.0029128186 0.00047146506 
  498000    2.6512587  0.023735848    28372.625    227536.96 -0.0016097826 0.0045585195 0.00093122663 
  499000    2.6429273  0.023146129    28372.625    227995.93 0.0012002032 0.0048911744 0.0030636993 
  500000    2.6484714  0.023474587    28372.625    228461.66 -0.0023615272 0.0036527997 0.0021878131 
  501000    2.6423458   0.02355314    28372.625    228898.31 -0.0020728112 0.0036415943 0.0018214056 
  502000    2.6521991  0.023701368    28372.625    229402.49 -0.0015320231 0.0021259139 0.0029343885 
  503000    2.6515744  0.023460665    28372.625    230034.45 0.0014061911 0.0018031945 0.0032174052 
  504000    2.6536786  0.023284871    28372.625    230639.22 -0.00041088211 -4.0571261e-05 0.0019198613 
  505000    2.6619031  0.024220601    28372.625    231204.84 0.00039105785 -0.0018901118 -0.00087121089 
  506000    2.6519578  0.023582213    28372.625    231932.31 0.0031012508 -0.0027705979 -0.00098085878 
  507000     2.653505  0.023775456    28372.625    232577.66 0.00067054315 -0.0036163481 -0.0028583254 
  508000    2.6304404  0.025678259    28372.625     233214.2 -0.0037995187 -0.0071009781 0.00039947215 
  509000    2.6551398  0.024105968    28372.625    233939.37 0.00074171192 -0.0030593677 -0.0037351543 
  510000    2.6520309  0.023334757    28372.625    234696.74 -0.00035679422 -0.0017443282 -0.0071760937 
  511000    2.6297582  0.025556207    28372.625    235379.48 -0.0045752917 -0.00050938115 -0.013591011 
  512000    2.6569454  0.023402101    28372.625    236025.92 -0.0050623497 0.00033537945 -0.0086757272 
  513000    2.6553506  0.023732747    28372.625    236663.31 -0.0052701501 0.00033405481 -0.0069736468 
  514000    2.6504858  0.023502452    28372.625    237270.73 -0.007051566 -0.0014723368 -0.0057449073 
  515000    2.6620278  0.023319169    28372.625    237864.12 -0.0073115139 -0.0029712313 -0.0046205536 
  516000    2.6238616  0.026197216    28372.625    238366.62 -0.0051642682 -0.0021531128 -0.0051270785 
  517000    2.6682178   0.02367593    28372.625    238951.46 -0.0086881589 -0.00074617068 -0.0025156003 
  518000    2.6521838  0.023524916    28372.625    239609.47 -0.0069553001 0.0012524089 -0.0017440673 
  519000    2.6547584   0.02357324    28372.625    240343.43 -0.0065041335 0.0024359113 -0.0014715963 
  520000    2.6459287  0.023616694    28372.625    241166.03 -0.0044648279 0.0060063169 -0.0022217995 
  521000    2.6485241   0.02327454    28372.625    241976.48 -0.0055223664 0.0038307396 -0.0038619723 
  522000    2.6517978  0.023881036    28372.625    242779.94 -0.0046746405 0.0041378148 -0.0039575286 
  523000    2.6504812  0.023376434    28372.625    243555.86 -0.010019724 0.0019816068 -0.0052399207 
  524000    2.6608834  0.023373696    28372.625    244191.05 -0.010518664 0.0016288948 -0.0038532684 
  525000    2.6372951   0.02419244    28372.625    244795.25 -0.0064740528 0.0035719744 -0.00048853291 
  526000    2.6549949  0.023606827    28372.625    245136.63 -0.0046037069 -0.0024876405 -0.0030821227 
  527000    2.6455875   0.02381774    28372.625    245387.63 -0.0022547083 -0.0012948019 -0.0023357915 
  528000    2.6417217  0.024105176    28372.625    245728.91 -0.0018787653 -0.0029541384 -0.0052299684 
  529000    2.6643385  0.023370023    28372.625    246070.88 -3.3330998e-05 -0.0028887972 -0.0042460163 
  530000    2.6487463  0.023690231    28372.625    246466.56 -0.0029173506 -0.0031321094 -0.007530507 
  531000    2.6501462  0.023854134    28372.625    246820.46 -0.00030552793 -0.0012641906 -0.0068637058 
  532000    2.6396721  0.023393529    28372.625    247055.77 -0.0020172399 -0.0026388679 -0.0056453241 
  533000    2.6478337  0.023561291    28372.625    247446.84 -0.0049058949 -0.0027287442 -0.0052796085 
  534000    2.6675538  0.023783407    28372.625    247804.91 -0.0061614267 -0.0010972202 -0.00087408008 
  535000    2.6612634  0.023339397    28372.625    248208.28 -0.0048190272 3.3733742e-05 0.00077342601 
  536000    2.6564297  0.023378647    28372.625    248511.88 -0.0034929269 -0.00071813808 0.00019340284 
  537000    2.6498947  0.023555863    28372.625    248684.68 -0.001989526 -0.0015895973 -0.0015374473 
  538000    2.6656359  0.023615928    28372.625     248891.8 -0.0016819642 0.00055003424 -0.00025706542 
  539000    2.6573062  0.023438057    28372.625    249137.32 -0.0040642558 0.00058477214 -0.0013322034 
  540000    2.6406356  0.023206269    28372.625    249392.97 -0.0025828953 0.00064616523 -0.00058331812 
  541000    2.6529043  0.023629773    28372.625    249749.57 -0.0037046797 -0.00028246489 -0.0029143728 
  542000    2.6439908  0.023814421    28372.625    250146.92 -0.0056671793 -0.00039001032 -0.0047151556 
  543000    2.6588331  0.023480397    28372.625       250637 -0.0054047231 0.0020411704 -0.0043897713 
  544000    2.6496086  0.023388094    28372.625    251078.52 -0.0053677316 0.0007308616 -0.0045671605 
  545000    2.6394391  0.024192335    28372.625    251547.66 -0.0045308334 -0.00037794882 -0.0015814648 
  546000    2.6378557  0.023274351    28372.625    251969.32 -0.003892524 0.0030413388 -0.0028965571 
  547000    2.6491199  0.024196063    28372.625     252220.8 -0.0043392007 0.0037261411 -0.0011713749 
  548000    2.6376667  0.023945384    28372.625    252529.78 -0.0085847274 -0.0008442015 -0.00079259923 
  549000    2.6423439  0.023267751    28372.625    253035.37 -0.007769565 0.0012339444 -0.0061756685 
  550000    2.6527447  0.024211147    28372.625    253627.73  -0.00680553 0.0017693514 -0.0053730657 
  551000    2.6651142  0.023335369    28372.625    254240.97 -0.010229739 -0.0054362969 -0.007757872 
  552000    2.6556858  0.023346983    28372.625     254749.7 -0.011098482 -0.0067325036 -0.0058630353 
  553000    2.6500463  0.023598987    28372.625    255295.27 -0.010425367 -0.0073900945 -0.0034135978 
  554000    2.6714407  0.023500218    28372.625     255879.8 -0.0085869249 -0.0086196228 -0.0017351631 
  555000    2.6450009  0.023595459    28372.625    256466.39 -0.0049417187 -0.0040907579 0.0012533586 
  556000    2.6519217  0.023340274    28372.625    257075.38 -0.0017358267  0.001380199 0.0015499498 
  557000    2.6351166  0.025724836    28372.625    257658.13 -0.0068872752 0.0032498066 0.00065227568 
  558000    2.6432595  0.023826908    28372.625    258250.01 -0.0019968922 0.0022187562 0.0035200156 
  559000    2.6522463   0.02347371    28372.625    258750.86 0.0032942786 0.0033480203 0.0022488228 
  560000    2.6559739  0.023399258    28372.625    259278.15  0.006744052 0.0040164119 0.00095973243 
  561000    2.6543616  0.023323153    28372.625    259942.25 0.0042842607 0.0017227414  0.004222883 
  562000    2.6390524   0.02355717    28372.625    260618.88 0.0044134472 0.0028899745 0.0041618406 
  563000    2.6383044  0.024494717    28372.625    261367.09 0.0048015393 0.0001866008 0.0071714668 
  564000    2.6496417  0.025228619    28372.625    262121.95 0.0011970534 0.0056307386 0.0074988251 
  565000    2.6562562  0.024444607    28372.625    262969.05  0.004337515 0.0035675951 0.0052320289 
  566000    2.6584111  0.023351219    28372.625    263823.93 0.0024987289 0.0031782235 0.0059353773 
  567000    2.6564143   0.02358596    28372.625    264639.93 0.0029803831 0.0062219678 0.0053377992 
  568000    2.6327968  0.024776606    28372.625    265404.53 0.0017164781 0.0070439451  0.007559117 
  569000    2.6487233  0.023113542    28372.625     266163.7 0.0023154811 0.0073747425 0.0071293362 
  570000    2.6492119  0.023217102    28372.625    266784.81 0.0031105483 0.0066500769 0.0085783108 
  571000    2.6517346  0.023465874    28372.625    267218.55 0.0015585031 0.0062064059 0.0054301831 
  572000     2.657728  0.023242474    28372.625    267614.53  0.002442232 0.0093582029 0.0066570653 
  573000    2.6428891  0.023657905    28372.625    268106.65 -9.5052257e-05 0.0079070766 0.0068637715 
  574000    2.6369224  0.024052936    28372.625    268650.38 0.0031552996 0.0072862147 0.0091291609 
  575000    2.6546528  0.023411579    28372.625     269159.2 0.0031523014 0.0060898892 0.0066993567 
  576000    2.6407352  0.023205894    28372.625    269475.95 0.0061066293 0.0073454376  0.005972654 
  577000    2.6308188  0.024599841    28372.625    269725.26 0.0067465172 0.0042008549 0.0059856947 
  578000    2.6459888  0.023569332    28372.625     270125.5 0.0034532887 0.0027249785 0.0040633133 
  579000    2.6476434  0.023570626    28372.625    270635.97 0.0021159307 0.0027863765 0.0053745548 
  580000    2.6549185  0.023585442    28372.625    271185.49  0.003171399 0.0038416819 0.0022157022 
  581000     2.659313   0.02394408    28372.625    271746.83 6.6816914e-05 -0.0014358911 0.0057011947 
  582000    2.6577088  0.024063971    28372.625    272391.52 0.0065197631 -0.0022879648 0.0042350654 
  583000    2.6523441   0.02371243    28372.625    272845.95  0.005660558 -0.001901241  0.004210898 
  584000     2.658708  0.023315111    28372.625    273300.57 0.0044199175 -0.0014518583  0.003755539 
  585000    2.6517704  0.023627876    28372.625    273853.64 0.0036220614 6.0292446e-05 0.0035635713 
  586000    2.6556126  0.023568404    28372.625    274353.17 0.0025964606 0.0033234137 0.0046709357 
  587000    2.6541973  0.024018806    28372.625    274841.04 0.0019737378 0.00036404134 0.0038762075 
  588000    2.6622926  0.023940236    28372.625    275326.77 0.0026402409 -0.0012034783 0.0040602869 
  589000     2.645676  0.024437949    28372.625    275892.48 0.00077110803 -0.00038879305 0.0035420785 
  590000    2.6492482  0.023350296    28372.625    276430.96 -0.00016939178 -0.0031232882 0.0035206369 
  591000    2.6569765  0.023264055    28372.625    276951.59 -0.00075982392 0.0012133554 0.0045678801 
  592000    2.6510325  0.023773916    28372.625    277315.82 0.00084533597  0.001739661 0.0018497412 
  593000    2.6284626  0.025629426    28372.625     277609.8 -0.0014626884 0.0021065763  0.002264932 
  594000    2.6619913  0.024679852    28372.625     277820.9 -0.0015847553 -0.0027692131 0.0040736153 
  595000    2.6636083  0.023660963    28372.625       278035 0.0012975225 -0.0042699532 0.0016295886 
  596000    2.6609629  0.023734286    28372.625    278199.67 0.0028948431 -0.003696984 0.0011213051 
  597000     2.665581  0.023291791    28372.625    278398.54  0.005224133 -0.0023828213 -0.00051723746 
  598000    2.6541754  0.023273414    28372.625    278802.89 0.0080237168 -0.00045172534 -0.0020301226 
  599000    2.6466103  0.024293209    28372.625    279203.06 0.0086434488 -0.00095125755 0.00076788841 
  600000    2.6513851  0.023620654    28372.625     279574.5 0.0072621871 -0.00098475555 -0.00034635694 
  601000    2.6510583  0.023362855    28372.625    279975.96 0.0082503092 0.0027238036 0.0037011874 
  602000     2.633181  0.024009817    28372.625    280349.69 0.0088883217 0.0013453021 0.0061541638 
  603000    2.6447191  0.023251411    28372.625    280814.41 0.0092619352 0.0016090521 0.0031789049 
  604000    2.6574288  0.023045316    28372.625    281331.09 0.0079839105 -0.0014220208 0.0034116678 
  605000    2.6465304  0.023867981    28372.625    281945.65 0.0059503522 -0.0034892071  0.005137358 
  606000    2.6658389  0.024159049    28372.625    282421.71 0.0074214757 -0.0011675805 0.0041971423 
  607000    2.6443939  0.024510747    28372.625    282935.35 0.0062017605 -0.0046846649 0.0047619208 
  608000    2.6487096  0.024284648    28372.625    283557.43 0.0087059201 -0.0056844233 0.0041612321 
  609000    2.6619182  0.023301146    28372.625    284197.08 0.0033136582 -0.0072419689  0.003542557 
  610000    2.6551276   0.02363236    28372.625    284771.96 0.0050846966 -0.0050922205 0.0019081497 
  611000    2.6638804  0.024237415    28372.625    285245.28 0.0027398442 -0.0058187244 0.0018907893 
  612000    2.6585346  0.023678511    28372.625    285662.92 0.0035848659 -0.0063166294 0.0030749368 
  613000    2.6672362  0.023968059    28372.625    286082.46 0.0096456298 -0.0038044193 0.00054159474 
  614000     2.644693  0.024404553    28372.625    286605.45 0.0068194601 0.0006400107 -0.0023434536 
  615000    2.6502831  0.023148972    28372.625    287104.81 0.0054151017 -0.0056093682 0.00030627233 
  616000    2.6531361    0.0243006    28372.625    287639.02 0.0047817061 -0.0075741226 0.00077760385 
  617000    2.6541177  0.023323053    28372.625    288175.69 0.0057988505 -0.0032524313 -0.0020323752 
  618000    2.6454565  0.023484563    28372.625    288763.77 0.0040441083 -0.0022217489 0.0023283471 
  619000    2.6467569  0.024039365    28372.625    289328.82 0.0007344606 -0.0019427678 0.0049771973 
  620000    2.6513058  0.023573179    28372.625    289789.77 0.0014513005 -0.0011596087 0.0071052171 
  621000    2.6673932  0.023587857    28372.625    290115.67 0.0020684837 -0.0018497071   0.00540114 
  622000    2.6495291  0.023822932    28372.625    290451.87 0.0040124654 -0.0029999621  0.005880579 
  623000    2.6451489  0.023396725    28372.625     290671.5 0.0058601667 -0.0024280915  0.006555393 
  624000    2.6566706  0.024416897    28372.625    290892.82 0.0078145341 0.0019101992   0.01006136 
  625000    2.6505841  0.023593121    28372.625     291283.6  0.006108817 0.0020059326 0.0085552378 
  626000    2.6436681  0.023743064    28372.625    291668.25 0.0052870824 0.0036427208 0.0063341638 
  627000    2.6573812  0.023489971    28372.625    292008.47 0.0025693082 0.0039707287 0.0055388846 
  628000    2.6523787  0.023938591    28372.625    292237.12 -0.00051457493 0.0024633605 0.0054056158 
  629000     2.657693  0.023106937    28372.625    292465.96 0.0043713906 0.00097628801 0.0013244699 
  630000    2.6295469  0.025453528    28372.625    292678.52 0.0043362562 0.0040399681 -0.0072213479 
  631000    2.6436455  0.024547548    28372.625    293025.77 0.0042154798 0.0010226539 0.00029400477 
  632000    2.6653552  0.024086147    28372.625    293279.05 0.0039642855 -0.0023273665 0.00017749373 
  633000    2.6405197  0.024329524    28372.625    293519.48 0.0036862623 -0.0047404888 0.0032153882 
  634000    2.6469149  0.023278556    28372.625     293763.6 0.0042712889 -0.0023330721 6.0098393e-05 
  635000    2.6524737  0.023456768    28372.625    293996.51 0.0057066802 -0.0034585408 0.0021753255 
  636000    2.6512132  0.023340299    28372.625    294273.29 0.0065614114 -0.007038488 0.0020540096 
  637000     2.650454   0.02382997    28372.625    294669.37 0.0016972327 -0.004939094 0.00017071812 
  638000    2.6468269  0.023779656    28372.625    295037.05 0.00088166624 -0.0034489868 -0.00077873696 
  639000    2.6469611  0.023978152    28372.625    295461.24 0.0033270144 -0.0026292962 -0.0019295557 
  640000    2.6554943  0.023608528    28372.625     295960.5 0.0017962642 -0.0032903083 -0.00017788795 
  641000    2.6501569  0.023746564    28372.625     296466.7 0.0022630768 -0.0015666071 -0.001904024 
  642000    2.6582324  0.023257077    28372.625    296845.01 -0.0011502584 -0.0023495256   -0.0017853 
  643000    2.6522311  0.023541358    28372.625    297363.03 -0.00084544024 -0.00070386642 -0.0019714296 
  644000    2.6564142  0.023646276    28372.625    297897.57 0.0014807226 -0.0013665445 -0.0015584266 
  645000    2.6458976  0.023371632    28372.625    298398.19 -0.0014223912 -0.0029814015 -0.00085681466 
  646000    2.6416967  0.023390598    28372.625    298974.15 -0.001734821 -0.0043257435 -0.00061435864 
  647000    2.6570093  0.023358917    28372.625    299659.44 -0.0014244936 -0.003228907 -0.0010617708 
  648000    2.6601178  0.023264321    28372.625    300365.88 -0.002327657 -0.0038782144 -0.0004742892 
  649000    2.6594678  0.023579838    28372.625    301119.39 -0.0024128327 -0.0029840953 0.00056262408 
  650000    2.6587062  0.023779447    28372.625    301679.64 -2.8973275e-05 0.00026647924 0.0037311144 
  651000    2.6442342  0.023232153    28372.625    302156.49 0.0012890742 -0.0036374683 0.0018549549 
  652000    2.6518574  0.023778312    28372.625    302734.69   0.00572192 -0.0060187757 -1.8202327e-06 
  653000    2.6544079  0.024358882    28372.625    303404.83 0.0052296136 -0.005222762 -0.0032931575 
  654000     2.657734   0.02356324    28372.625    304240.12 0.0043421487 -0.0051350979 -0.0011141132 
  655000    2.6660879  0.023554874    28372.625    304966.68 0.0039536942 -0.0047359897 -0.0033599839 
  656000    2.6411281  0.024128848    28372.625    305630.81 0.0047791344 -0.0036251885 -0.0056915997 
  657000    2.6485544  0.023781691    28372.625    306367.62 0.0018119095  -0.00329065 -0.0063587113 
  658000    2.6582499   0.02331373    28372.625    307320.47 0.00080235236 -0.002567293 -0.0039320333 
  659000    2.6569057  0.023868086    28372.625    308226.32 0.0022821647 0.00029058676 -0.0010803962 
  660000    2.6399124  0.024124644    28372.625    309127.57 0.0035376519 0.0015495315 -0.0026201281 
  661000    2.6447506   0.02408686    28372.625       310075 0.0022779143 -0.0024723313 -0.0043181185 
  662000    2.6475278  0.024323628    28372.625    310884.89  0.001038039 -0.0022703987 -0.0017478724 
  663000    2.6606312  0.023444737    28372.625    311788.72 3.6260847e-06 -0.0024490922 0.0022317522 
  664000    2.6460998   0.02358587    28372.625    312786.86 0.0011516105 -0.0027107089  0.001526908 
  665000    2.6504459  0.023759471    28372.625    313547.61  0.002243464 -0.0024614751 0.0010354952 
  666000    2.6356451  0.024505073    28372.625    314210.49 6.8440296e-05 -0.00012660816 0.00081697644 
  667000    2.6593179  0.023473391    28372.625    314787.18 -0.0031391738 -0.0020086257 -0.00055733581 
  668000     2.621274  0.024876164    28372.625    315477.25 -0.0039015795 -0.0027228642 -0.0009363863 
  669000    2.6342107  0.025569174    28372.625    316260.21 -0.0035972868 -0.0032469857 -0.0035223942 
  670000    2.6593146  0.023607958    28372.625    317045.88 -0.0055481965 -0.010385846 -0.0081643798 
  671000    2.6524508  0.024520026    28372.625    317878.05 -0.0039565598 -0.0088750288 -0.0076472871 
  672000    2.6702937  0.023058071    28372.625    318809.19 -0.004637519 -0.0066866565 -0.0071577281 
  673000    2.6435922  0.024186985    28372.625    319708.04 -0.0035716811 -0.0074197019 -0.0059427303 
  674000    2.6726744  0.024093083    28372.625    320662.99 -0.0019448825 -0.0097295015 -0.0066883049 
  675000    2.6461886  0.023793471    28372.625    321700.39 -0.0043418871 -0.0066211457 -0.0067514274 
  676000    2.6421943  0.023203556    28372.625    322771.42 0.00060147572 -0.0064728984 -0.0051841944 
  677000    2.6360255  0.023373334    28372.625     323865.7 -0.0008813169 -0.0052828898 -0.0049613282 
  678000    2.6409769  0.023966648    28372.625    324914.12 9.272085e-05 -0.0063901286 -0.0048920362 
  679000    2.6490555   0.02323183    28372.625    325900.14 -0.00021356149 -0.006814666 -0.003527379 
  680000    2.6482132  0.023474348    28372.625    326706.23 0.00098404272 -0.0079510708  0.001137273 
  681000    2.6540482  0.023683194    28372.625    327487.98 0.0025727917 -0.006748847 -0.00099311417 
  682000    2.6582774  0.023588888    28372.625    328303.22 0.0032490738 -0.0083330758 -0.0018705016 
  683000    2.6518805  0.024246203    28372.625    329067.05 0.0060010914 -0.013513102 -0.0014978082 
  684000    2.6536105  0.023402577    28372.625    329745.92 0.0042428652 -0.0083739267 -0.00050567951 
  685000    2.6463569  0.024034304    28372.625    330595.54 0.0040867131 -0.0080569136 -0.00041196024 
  686000    2.6523748  0.023570976    28372.625    331523.67 0.0027039092 -0.0077050476 -0.0020184158 
  687000    2.6570626  0.024251093    28372.625    332434.72 0.0018179077 -0.0086230656 -0.0016320252 
  688000    2.6419439  0.024537665    28372.625    333371.55 0.0030419743 -0.0017384902 -0.0023858534 
  689000     2.651269  0.024200258    28372.625    334337.08 0.0020893645 8.9924274e-05 -7.5928263e-05 
  690000    2.6407228  0.024095615    28372.625     335211.9 0.0026879585 0.0016012311 -0.0033819856 
  691000    2.6487944  0.024205209    28372.625    336078.95 -0.00046681208 0.0034828424 -0.0017925227 
  692000    2.6411385  0.023579561    28372.625    337083.48 -0.00049865165 0.0019557905 -0.0026804436 
  693000    2.6479594  0.023632287    28372.625    338194.22 0.0023177809 0.0057212341 -0.0019195546 
  694000       2.6561  0.023768568    28372.625    339226.63  0.003671542 0.0028964368 -0.003406896 
  695000    2.6453163  0.024087997    28372.625       340117 0.0036800606 0.0070907313 -0.00089750312 
  696000    2.6603096  0.023578823    28372.625    341031.67 0.0018733913 0.0063750066 -0.0029559846 
  697000    2.6528312  0.023837618    28372.625    341897.79 -0.0007225338 0.0049217049 -0.003768663 
  698000    2.6517631  0.023492666    28372.625    342873.76 0.0029028996 0.0044344693 -0.001995304 
  699000    2.6508399  0.024660669    28372.625    343937.19  0.005110772 0.0060727451  -0.00542104 
  700000    2.6505413  0.023303468    28372.625    344989.61 0.0060691528 0.0083142002   0.00226249 
  701000    2.6472334  0.023438745    28372.625    345931.57 0.0053126047 0.0034244473 0.0010947208 
  702000    2.6470097  0.023514317    28372.625    346706.18 0.0036016674 0.0013198794 -0.0012220377 
  703000    2.6478938  0.023761803    28372.625    347329.76 0.0080776681 9.7840799e-06 -0.0030390562 
  704000    2.6556342  0.023241657    28372.625     347811.5 0.0068179574 -0.00026945134 -9.9204475e-05 
  705000    2.6553578  0.024097747    28372.625    348126.51 0.0062688658 -0.0013394121 -0.0017441733 
  706000    2.6537917  0.023383529    28372.625     348520.4  0.004438128 -0.00010781469 0.0010904236 
  707000    2.6663622  0.023177756    28372.625    348927.04 0.0058261971 -0.00031580824 -0.0017378975 
  708000    2.6717381  0.024158945    28372.625    349295.35 0.0067651452 0.00082793682 -0.0030789638 
  709000    2.6537008  0.023276871    28372.625    349609.61 0.0044996543 0.0023690686 -0.0026969029 
  710000    2.6643408  0.023146038    28372.625    349922.16 0.0099903057 0.0031149448  -0.00443757 
  711000    2.6685937  0.023256434    28372.625    350369.85 0.0060867114  0.005318353 -0.0064337803 
  712000    2.6600821  0.023137163    28372.625    350833.61 0.0044723644 0.0039117329 -0.0037848142 
  713000    2.6481528  0.023556581    28372.625    351494.62 0.0033165959 0.00055842383 -0.0071653182 
  714000    2.6638223  0.023496813    28372.625    351961.21 0.0043650717 0.0012002596 -0.0073010404 
  715000    2.6562355  0.023271884    28372.625    352354.23 0.0020632701 0.0013211612 -0.0059560259 
  716000    2.6451751  0.023129975    28372.625     352813.2 0.0020893292 0.0021321661  -0.00606488 
  717000    2.6517183  0.023797762    28372.625    353247.37 -0.0002015692 -0.00074672792 -0.0012618098 
  718000    2.6505502  0.023398658    28372.625    353560.23 0.0013261471 0.0011878508 -0.0017574593 
  719000    2.6613346  0.023814985    28372.625    353838.36 0.00043444774 -0.0021079757 -0.0013614034 
  720000    2.6548588  0.023450802    28372.625    354335.83 0.0026466066 -0.00042458944 -0.00069015396 
  721000    2.6473803  0.023295703    28372.625    354659.08 0.0023530236 0.0013570013 -0.0017451139 
  722000    2.6538075  0.023461261    28372.625    354950.12 0.0027366655 0.0011185777 -0.0023414758 
  723000    2.6480671  0.023299931    28372.625     355205.8 0.0038944371 0.00044332394 -0.0037715762 
  724000    2.6523913  0.024070504    28372.625    355564.25 0.0072763944 0.0030608878 -0.001521875 
  725000    2.6519389  0.024303411    28372.625    355883.02 0.0056895857 0.0023953806 -0.001771387 
  726000    2.6535586  0.024642469    28372.625    356300.82 0.0038341287 0.0013436065 -0.0021597071 
  727000    2.6527457  0.023830335    28372.625    356633.12 0.0061562476 0.0011297112 0.0023395791 
  728000    2.6542248  0.023241149    28372.625    356996.85 0.0039215965 0.0019445882 0.00085916076 
  729000    2.6390275  0.024885422    28372.625    357367.97 0.0031228454 0.0037982551 0.0016395001 
  730000    2.6535543   0.02346598    28372.625    357797.74 0.0025030307 3.352539e-05 0.00045792847 
  731000    2.6539026  0.023761852    28372.625    358188.64 0.0031140207 -0.0058707747 -0.00032578378 
  732000    2.6741838  0.023446773    28372.625    358550.96 0.0032696749 -0.0026202025 -0.00048710399 
  733000    2.6485365  0.024131977    28372.625     358783.8 4.4864936e-05 -0.0014419011  0.001242098 
  734000    2.6336381   0.02496399    28372.625    359118.18 0.0012312638 -0.003790321 0.0020679211 
  735000    2.6495575   0.02383061    28372.625    359436.23 0.0014333064 -0.0017251076 0.0026763527 
  736000    2.6635955  0.023302206    28372.625    359817.66 -0.00075364992 -0.0037437159 0.00086377395 
  737000    2.6547377  0.023851076    28372.625    360225.48 -0.00098704085 -0.002525852 0.0014807445 
  738000    2.6565139  0.023310173    28372.625    360646.61 -0.00068970114 -0.0031722093 0.0016306268 
  739000    2.6498963  0.023362876    28372.625    361104.22 0.0021228063 -0.0035050328 0.0018010012 
  740000    2.6473735   0.02381603    28372.625    361395.35 0.0047140341 -0.0032884717 0.0018522395 
  741000    2.6391107  0.024853104    28372.625    361529.13 0.0018343409 -0.0069343235 0.0033149253 
  742000    2.6353596  0.024121864    28372.625    361721.12 -0.0009716282 -0.006550006 0.0015333911 
  743000    2.6489734  0.023514622    28372.625    361965.51 0.00060862587 -0.0051574403 0.0032071643 
  744000    2.6540056  0.024159362    28372.625    362305.03 0.00088063279 -0.0044316071 0.0044882695 
  745000    2.6557882  0.023507459    28372.625    362668.67 0.00075892632 -0.0048395908  0.002261512 
  746000    2.6447881  0.023360409    28372.625    363095.37 0.0015990042 -0.0042005696  0.002141736 
  747000    2.6447162   0.02334178    28372.625    363491.05 0.0010845177 -0.00041481168 0.00097899875 
  748000     2.656667  0.023336837    28372.625    363863.49 0.00037369675 0.0011081474 0.0047096877 
  749000    2.6347018  0.024678801    28372.625    364202.76 0.00026860081 0.00060533668 0.0048635134 
  750000    2.6479799  0.024371895    28372.625    364477.53 -0.0033108625 0.00012409043 0.0048727078 
  751000    2.6540295  0.023320593    28372.625    364903.75 -0.00020970079 0.0004024231 0.0017930833 
  752000    2.6594115  0.023256733    28372.625    365307.97 -0.00050221733 0.0014654195 0.0013309162 
  753000    2.6238807  0.025742563    28372.625    365797.15 -0.00026698379 -0.0032425826  0.001959939 
  754000    2.6556423  0.023738126    28372.625    366406.72 -0.0018424273 -0.0018390908 0.00053028392 
  755000    2.6551084  0.023576498    28372.625    367021.06 -0.00037555993 -0.0035507448 0.00052786768 
  756000    2.6582033  0.024085005    28372.625    367725.23 -0.0053239542 -0.0034410813 0.00055816708 
  757000    2.6591838  0.023359084    28372.625    368515.64 -0.0057605796 -0.0036474994 -1.5430437e-05 
  758000    2.6454789  0.023288365    28372.625    369367.12 -0.006273039 -0.0039858009 0.0010175665 
  759000    2.6338709  0.024527353    28372.625    370211.61 -0.0049672333 -0.00018348558 -0.0065595229 
  760000    2.6489578  0.023410266    28372.625    371007.35 -0.0079066316 0.0029944386 0.00095021197 
  761000    2.6626703  0.023801131    28372.625    371763.59 -0.0079133371 0.0061616307 -0.0031088622 
  762000    2.6509538  0.023332546    28372.625    372371.77 -0.0076093657 0.0073614331 -0.0032481874 
  763000    2.6476428  0.023756119    28372.625    373018.42  -0.00374613 0.0031628341 -0.00041443235 
  764000    2.6456999  0.023425725    28372.625    373697.47 -0.0061747918 0.00028574624 5.7809277e-05 
[...]
 1814000    2.6638501  0.024083273    28372.625    829861.44 -0.0039334573 0.0015922702 -0.0036595776 
 1815000    2.6260397  0.025136499    28372.625    829594.64 -0.0033397732 0.0028867472 -0.0061216221 
 1816000    2.6528216  0.023460987    28372.625    829328.24 -0.0034111031 0.0019787222 -0.0045791419 
 1817000    2.6548462  0.023186919    28372.625    829166.55 -0.0030766749 0.0026116579 -0.00022453583 
 1818000    2.6556373  0.023746591    28372.625    829086.39 -0.00085456863 0.0018665495 -0.0011896063 
 1819000      2.66536  0.023540107    28372.625    829088.09 -0.0035411872  0.003463171 -0.0011900081 
 1820000    2.6357832  0.024997503    28372.625    829095.73 -0.003140161 0.0010492472 0.0011864684 
 1821000     2.640726  0.025407401    28372.625    829440.55 -0.0026542015  0.003714737 -0.00099513397 
 1822000    2.6451356  0.023298418    28372.625    829742.87 -0.0054578008 0.0031926384 -0.0037947918 
 1823000    2.6538047  0.023509074    28372.625       830057 -0.0035150644 5.6493379e-05 -0.0014604926 
 1824000    2.6453921  0.023554383    28372.625    830552.93 -0.0033554168 -0.0020273014 -0.0035606958 
 1825000    2.6518913   0.02444284    28372.625    831262.07 -0.0017890708 -0.0027684536 0.0022988794 
 1826000    2.6587366  0.025010667    28372.625     831597.5 -0.0018444389 0.0047995411 0.00016844557 
 1827000    2.6623821  0.023403757    28372.625    831958.98 -0.003690552 0.0034292266 0.00061612937 
 1828000    2.6538676  0.023583496    28372.625     832576.9 -0.0012281142 0.0049813802 -0.0025376015 
 1829000    2.6462363  0.023754221    28372.625    833274.66 -0.00062265144 0.0029158072 -0.0016173258 
 1830000    2.6634886  0.023540619    28372.625    833929.04 0.00037696927 0.0021108871 -0.0024685312 
 1831000    2.6463414  0.023143582    28372.625    834641.38 0.0026100069 0.0039717429 -0.0011760205 
 1832000     2.655392  0.023308013    28372.625    835388.76 0.0038333952  0.003785943 -0.00062901929 
 1833000    2.6526207  0.023412498    28372.625    836216.12 0.0026751173 0.0041305446 -0.0016772816 
 1834000    2.6424922  0.023819226    28372.625    837143.54 0.00089751184 0.0083130798 -0.0017037766 
 1835000    2.6478992  0.023578542    28372.625    838045.32 -0.0009077014 0.0054214627 -0.00058371467 
 1836000    2.6531803  0.023544298    28372.625    838870.07 -0.0034303649 0.0090837842 -0.001466642 
 1837000    2.6375922   0.02558409    28372.625    839705.51 -0.0027129271 0.0038378269 -0.0041878999 
 1838000    2.6629705  0.023499143    28372.625    840290.69 -0.0015105946 0.0071179534 -0.0022370757 
 1839000    2.6529272  0.023956747    28372.625    840738.94 -0.0034629946 0.0069724962 -0.0019928019 
 1840000    2.6555711   0.02364569    28372.625    841110.62 0.00089949236  0.007729597 0.00093246624 
 1841000    2.6576312  0.024281758    28372.625    841334.47 -0.0039211684 0.0052833091 0.0015355237 
 1842000    2.6576941  0.023264339    28372.625    841563.39 0.00027011891 0.0047029606 -0.0020353449 
 1843000    2.6477183  0.023673245    28372.625    841870.96 0.00056782561 0.0034146755 -0.0021573848 
 1844000    2.6520915  0.023200227    28372.625    842153.12 0.00033604186 0.0052574412 -0.0039911134 
 1845000    2.6471527  0.023544159    28372.625    842479.43 0.00025913546 0.0062240557 -0.0027689443 
 1846000    2.6481655   0.02497721    28372.625    842954.65 -0.0026214758 0.0050424925 -0.0035047336 
 1847000    2.6502975  0.023208976    28372.625    843312.34 0.00045022666 0.0050897754 -0.0028192732 
 1848000    2.6560818  0.023668481    28372.625    843685.24 -0.00084696344 0.0040141932 -0.0033421696 
 1849000    2.6452726  0.023947172    28372.625    844167.37 0.00059766627  0.004446932 -0.00067293399 
 1850000    2.6606847  0.023398872    28372.625     844968.1 -0.00036976758 0.0044836004  -0.00353701 
 1851000    2.6409936  0.024479654    28372.625    845924.93 -0.0021233986 0.0039874916 -0.0024045967 
 1852000    2.6499641  0.023315432    28372.625    846679.47 -0.0023859108 0.0038430539 -0.0014828213 
 1853000    2.6564172  0.023370533    28372.625    847308.97 -0.0016615406  0.005206737 -0.0016214875 
 1854000    2.6721441  0.023319743    28372.625    847922.58 -0.0012763918 0.0070291708 -0.0027878817 
 1855000    2.6505494  0.024377454    28372.625    848595.26 -0.0066450696 0.0052032487 -0.0014805422 
 1856000    2.6532297  0.024425887    28372.625    849370.27 -0.0050281881  0.004475043 -0.0023123565 
 1857000    2.6455545  0.023487684    28372.625    850284.24 -0.0069294519 0.0022033615 -0.0020170789 
 1858000    2.6368417   0.02443464    28372.625    851306.38 -0.0057593021 0.0049125689 -0.011236705 
 1859000    2.6592816  0.023454816    28372.625     852420.7 -0.0037619752 -0.0008630413 -0.004242253 
 1860000    2.6621061  0.023221217    28372.625    853451.33 -0.0034201159 -0.0020774699 -0.0037849089 
 1861000    2.6565353  0.023974794    28372.625    854411.04 -0.0017450042 -0.0033606301 -0.00020178988 
 1862000    2.6459566  0.023702955    28372.625    855471.47 -0.0033903504 -0.0043346827 0.0020553876 
 1863000    2.6637943  0.023156784    28372.625    856568.04 -0.0031528725 -0.0031789334 -0.0012538798 
 1864000    2.6544691  0.023812154    28372.625    857515.58 -0.0034078052 -0.0010403308  0.003189372 
 1865000    2.6531438  0.023584012    28372.625    858256.07 -0.0032393598 1.9416166e-05 0.0016481072 
 1866000    2.6506639   0.02346654    28372.625    858846.71  -0.00347014 -0.0011092745 0.00050579715 
 1867000    2.6393955  0.024501322    28372.625    859506.01 -0.0030140035 -0.0016530637 -0.001171949 
 1868000    2.6448171  0.023595843    28372.625    860216.84 -0.00094176501 0.0018340358 -0.00077552571 
 1869000    2.6485941  0.024208062    28372.625    861091.42 0.00061642408 0.0054975433 0.00014521358 
 1870000     2.654989  0.023340529    28372.625    862082.66 0.0012194257 0.0021000339 0.0029520147 
 1871000    2.6498098   0.02321381    28372.625    863173.28 -0.0002868526 0.0072516276 0.0046156423 
 1872000    2.6601015  0.023372975    28372.625    864055.76 0.0025022802 0.0048376382 0.0045865089 
 1873000    2.6501591  0.024825536    28372.625    864543.75 8.5965864e-05 0.0028585774  0.011715985 
 1874000    2.6543649  0.023639499    28372.625    865132.48 0.0047475277 0.0014980152 0.0099461626 
 1875000    2.6429855  0.023320759    28372.625    865553.77 0.0065586161 -0.0012842192 0.0090622009 
 1876000    2.6542284  0.024223255    28372.625    865866.16  0.010891222 -0.00053172517  0.011221125 
 1877000    2.6398742  0.023705177    28372.625    866171.04 0.0073438295  0.003271078  0.013219641 
 1878000    2.6592853   0.02365285    28372.625    866381.74 0.0046345276 0.0033188442   0.01283695 
 1879000    2.6464423  0.023904586    28372.625    866460.85  0.003174678 0.00040941418  0.010599509 
 1880000    2.6529534   0.02482048    28372.625     866669.7 0.0046862821 -0.0010970923  0.011391158 
 1881000    2.6488422  0.023604171    28372.625    866952.99 0.0022819308 0.0020595509   0.01307479 
 1882000    2.6642369  0.023384678    28372.625    867392.17 0.0072910564 0.0014328334  0.011786914 
 1883000    2.6440498  0.024793794    28372.625    867812.94 0.0078226221 0.0014370332  0.010211166 
 1884000     2.648454  0.024434198    28372.625    868148.41 0.0064866423 0.0040831803 0.0088405848 
 1885000    2.6604178  0.024125547    28372.625    868232.94 0.0034461761 0.0033535216 0.0089034661 
 1886000    2.6608995  0.024089724    28372.625    868610.37 0.0048334159 0.0023413906 0.0076464842 
 1887000    2.6561297  0.023581635    28372.625    869267.09 0.0038307033 -0.002396971 0.0076984755 
 1888000    2.6443514  0.023516797    28372.625    869811.19 0.0075189618 -0.0023449045 0.0040114393 
 1889000    2.6446493   0.02357418    28372.625    870171.36  0.007485219 -0.00032067238 0.0045313145 
 1890000    2.6506913  0.023991349    28372.625    870700.85 0.0060676906 -0.0023882203 0.0061427458 
 1891000    2.6343499  0.023676334    28372.625    871242.27 0.0060471505 0.00041720515 0.0072706043 
 1892000    2.6431041  0.023739531    28372.625    871833.18 0.0030170308 0.0040579422 0.0085371456 
 1893000    2.6420986  0.023507693    28372.625    872262.17 0.0050549462 0.00015292492  0.005138723 
 1894000    2.6431866  0.023194771    28372.625    872844.46 0.0055375363 -0.0001506299  0.005985517 
 1895000    2.6480712  0.024227253    28372.625    873282.74 0.0047925921 -0.00056468704 0.0062062239 
 1896000    2.6405341   0.02377854    28372.625    873704.71 0.0055874457 -0.0011888034 0.0068662598 
 1897000    2.6499902  0.023952146    28372.625    874038.64 0.0040578188 0.0030312341 0.0057991077 
 1898000    2.6525915  0.023474445    28372.625    874214.71  0.006166323 -0.0012523385 0.0042946344 
 1899000    2.6564975  0.023420118    28372.625    874375.11 0.0053862396 0.00050362635 0.0066437734 
 1900000    2.6453197  0.023807967    28372.625    874599.91 0.0057589634 0.0027678255 0.0078102034 
 1901000    2.6452867  0.024810268    28372.625     874961.7 0.0069689573 0.0074253953 0.0067888976 
 1902000    2.6297201  0.025546201    28372.625    875191.48 0.0065833208 0.0052164991 0.0083020185 
 1903000    2.6471301  0.023809146    28372.625    875305.42 0.0082340064 0.0028555296 0.0023908581 
 1904000    2.6388647  0.024416567    28372.625     875155.5 0.0084875509 0.0060019165 -4.0911917e-05 
 1905000    2.6415581  0.024221504    28372.625    874932.27 0.0030078406 0.0076771099  0.002853862 
 1906000    2.6489528  0.023232574    28372.625    874790.25 0.0051499623 0.0055152038 0.00015033728 
 1907000    2.6457913   0.02322768    28372.625    874608.01 0.0047990125 0.0038069085 0.0015554173 
 1908000    2.6505928  0.023873998    28372.625    874494.75 0.0008755656 -0.0021192569 0.0014047531 
 1909000    2.6534933  0.023275854    28372.625    874402.88 -0.00065895308 -0.0016685366 0.00065669374 
 1910000    2.6446307  0.023469978    28372.625    874064.02 -0.002339813 -0.0042545285 0.0010987848 
 1911000    2.6447517    0.0232153    28372.625    873903.78 -0.0047097674 -0.004564194 0.0027933372 
 1912000    2.6583282  0.023203379    28372.625    874033.43 -0.0061178801 -0.0046168145 0.0036305402 
 1913000    2.6429089  0.024512972    28372.625    874380.77 -0.011177714 -0.0055781097 0.0080679526 
 1914000    2.6606342  0.024222137    28372.625    874862.53 -0.009784675 -0.0040206542 0.0048413843 
 1915000    2.6485156   0.02373328    28372.625     875392.2 -0.0091169837 -0.0034850186 0.0057429402 
 1916000    2.6612075  0.024002941    28372.625     875765.6 -0.0063685765 -0.0045916934 0.0076690785 
 1917000    2.6326941  0.025609349    28372.625    875948.21 -0.0059759417 -0.0027660952 0.0048175848 
 1918000    2.6482355  0.023633205    28372.625    876202.25 -0.0042945305 -0.0042346693 0.0028858536 
 1919000     2.645767  0.024248966    28372.625    876493.82 -0.0042496873 -0.0020799555 0.0031331551 
 1920000    2.6489894  0.023331134    28372.625    876807.95 -0.000714727 -0.00035038888 0.0011163159 
 1921000    2.6409339  0.023618607    28372.625    877215.02 -0.0028042326 0.0012470913 0.00080203085 
 1922000    2.6646952  0.023602238    28372.625     877429.1 -0.0047836623 -0.0011397184 0.0028517931 
 1923000    2.6497645  0.023932199    28372.625    877806.53 -0.006881104 0.00033192087 0.0057902437 
 1924000    2.6521576  0.023845349    28372.625    878275.31 -0.0083636753 0.0042523493 0.0080927179 
 1925000    2.6563509   0.02400822    28372.625    878947.33 -0.0060460192 0.0029844523 0.0083669351 
 1926000    2.6396353   0.02435643    28372.625    879595.72 -0.0041370581 0.0051858517 0.0074462787 
 1927000    2.6389471  0.023648156    28372.625    879953.03 -0.0037239748 0.0033555542 0.0050788383 
 1928000    2.6558502  0.023900748    28372.625     880197.2 -0.0069894326 0.0038350195 0.0052878555 
 1929000    2.6661449  0.023381135    28372.625    880622.28 -0.0071873386 0.0044035902 0.0032289849 
 1930000    2.6449861  0.024475864    28372.625    880920.88 -0.0058215541  0.008554683 -5.9061103e-05 
 1931000    2.6569393  0.024751269    28372.625    881213.41 -0.0050217189 0.0078269455 -0.0015157504 
 1932000    2.6493628   0.02325311    28372.625    881781.31 -0.007656056 0.0068289356  0.001986202 
 1933000    2.6801971  0.024013701    28372.625    882333.38 -0.0061134027 0.0071055508 0.00039110156 
 1934000    2.6564174  0.023833894    28372.625    882836.89 -0.010184787 0.0044388008 -0.0018531135 
 1935000    2.6480523  0.023459014    28372.625    883302.34 -0.005335108 0.0029223941 0.00019924848 
 1936000    2.6529928  0.023600107    28372.625    883739.29 -0.0027165554 0.0032520828 -0.0013586576 
 1937000    2.6478412  0.023546781    28372.625    884244.41 -0.0025590416  0.002209134 0.00093965648 
 1938000    2.6432595  0.023787187    28372.625    884831.23 -0.0010106168  0.003543138 0.0012766671 
 1939000    2.6440713  0.023814153    28372.625    885298.55  0.005104029 0.00075541152 0.00034931915 
 1940000    2.6281384  0.025307195    28372.625    885737.46 0.0046078068 0.0025334314 0.0002898467 
 1941000    2.6528243  0.023307137    28372.625    886370.95 0.0043763469 0.00023240786 0.0025254053 
 1942000    2.6392063  0.024473263    28372.625    887205.16 0.0051958602 -0.0032725344 0.0068164115 
 1943000    2.6579449  0.023216864    28372.625    887943.34  0.001441837 0.00042036351 -0.00012755569 
 1944000    2.6558781  0.023261324    28372.625    888781.65 -0.00099970306 0.0019531367 -0.0015846744 
 1945000    2.6554106   0.02344355    28372.625    889619.74 0.0012398581 -0.00032907025 -0.00089891314 
 1946000    2.6524227  0.023370255    28372.625    890312.56 0.00039180197 -0.0022710389 0.0013707513 
 1947000    2.6574295  0.023602886    28372.625    891001.53 -0.0021027819 -0.0015177221 0.00036839682 
 1948000    2.6543617  0.023413639    28372.625    891522.44 -1.8309395e-05 -0.00028061752 0.0020687894 
 1949000    2.6541963  0.024403422    28372.625    892094.35 0.00046510403 -0.0031531924 -0.0010304735 
 1950000    2.6386725  0.024683275    28372.625    892689.92 -0.0015358683 0.0017862138 -0.00046108233 
 1951000    2.6430767  0.023305018    28372.625    893019.33 -9.9372538e-05 0.00027605803 0.0001351742 
 1952000    2.6503166  0.024317845    28372.625    893328.09  0.001326065 0.00033393802 0.00052968762 
 1953000    2.6445551  0.023248211    28372.625    893721.48 0.0016423155 0.0031930626 8.293515e-05 
 1954000    2.6366177  0.024388951    28372.625    893982.76 -0.0025391279 0.00061449457 0.0026048811 
 1955000    2.6609203  0.024125254    28372.625    894346.73 -0.0026780743 0.00065734936 0.0014720956 
 1956000    2.6544061  0.023913913    28372.625    894772.89 0.00020837102 0.0011728532 0.0039450936 
 1957000    2.6525432  0.024159236    28372.625    895494.64 0.0015936409 0.0014176073 0.00085884206 
 1958000    2.6449182  0.023537663    28372.625    896364.21 -0.00099126044  0.002139474 0.0040832674 
 1959000    2.6430258    0.0249419    28372.625    897173.34 -0.0011407597 0.00097702681 0.0037964363 
 1960000    2.6446462  0.024554645    28372.625    897911.93 -0.0032271703 0.0019842396 0.0011621015 
 1961000    2.6566193  0.023884129    28372.625    898619.34 -0.0022064349 0.0030040877 0.0023748593 
 1962000    2.6467769  0.023236462    28372.625    899292.86 -0.0018765381 0.0032082428 0.0011763534 
 1963000    2.6363165  0.024116339    28372.625     899843.2 -0.0036141592 0.0070878265 0.0031233667 
 1964000    2.6414476  0.023877542    28372.625    900390.51 -0.0066650337 0.0054646082 0.0011283209 
 1965000    2.6462893   0.02314126    28372.625    901154.35 -0.0024715697 0.0081395094 0.0022449919 
 1966000     2.666485   0.02350313    28372.625    901999.18 -0.0038702487 0.0068297489 0.0019858654 
 1967000    2.6409443  0.024366059    28372.625    902926.42 -0.0029002296  0.004544915 -0.0012075933 
 1968000    2.6427062  0.023603198    28372.625    903867.49 -0.0019877332 0.0071378961 -3.9251129e-05 
 1969000    2.6271155  0.024248168    28372.625    904339.64 -0.0019335402 0.0041026558 -0.004827385 
 1970000    2.6322442  0.024478754    28372.625     905062.6 -0.0035013675 0.0046833612 -0.0044935148 
 1971000    2.6408788  0.023414848    28372.625    905923.24 -0.0041350823 0.0023550484 -0.0048420237 
 1972000      2.64357  0.024297434    28372.625    906805.37 -0.0030512485 0.0031832346 -0.0049225589 
 1973000    2.6506924   0.02360305    28372.625    907700.78 -0.0012931053 0.0023386146 -0.0038725302 
 1974000    2.6382459  0.024073219    28372.625    908649.33 -0.0028618156 0.0031541892 -0.0033711569 
 1975000    2.6601096  0.023720066    28372.625    909430.76 -0.0030956849 0.0061434893 -0.0037985392 
 1976000    2.6610219  0.023697451    28372.625    909871.18 -2.5248841e-05 0.0032207668 -0.0060604219 
 1977000    2.6541971  0.024873591    28372.625    910287.65 -0.0026689558 0.0036397906 -0.0050443959 
 1978000    2.6589109  0.023525623    28372.625    910837.59 -0.0043935652 0.0014148771 -0.0027440233 
 1979000    2.6525584  0.023127625    28372.625    911250.47 -0.0034072438 0.00065930288 -0.0021088629 
 1980000       2.6522  0.023866093    28372.625    911656.73 -0.00086562935 -0.0025212047 -0.00054925693 
 1981000     2.658691  0.023252597    28372.625    912170.37 -0.0027864449 -0.0024887707 0.0012518802 
 1982000    2.6471991  0.023518377    28372.625    912560.47 -0.0033027977 -0.00020689649 -0.00027025245 
 1983000    2.6553563  0.023607821    28372.625    912960.51 -0.0089709117 -0.0023356631 -0.0023019158 
 1984000    2.6549653  0.024471967    28372.625    913652.27 -0.011974062 0.0011952243 0.0010769402 
 1985000    2.6453092  0.023675852    28372.625    914325.29 -0.0055155078 -2.0770173e-05 -0.003347643 
 1986000    2.6558172  0.024298346    28372.625    915047.92 -0.0068469114 -0.0012766859 -0.0051723971 
 1987000    2.6630619  0.024428604    28372.625     915957.8 -0.0084819238 -0.0020047755 -0.0046126676 
 1988000    2.6589665   0.02313447    28372.625    916530.56 -0.0059835965 -0.0012635851 -0.0041814333 
 1989000    2.6607824  0.023539796    28372.625    917092.29 -0.0040020888 -0.00080913398 -0.0061769215 
 1990000    2.6534961  0.023826848    28372.625    917729.68 0.00014026657 -0.0012006711 -0.005766688 
 1991000    2.6709864  0.023861403    28372.625    918264.01 -0.00085304634 -0.0001747832 -0.0054219105 
 1992000    2.6618527  0.023203422    28372.625    918819.39 -0.0005243364 -0.00036651115 -0.0059125691 
 1993000    2.6503803  0.023423555    28372.625    919529.51 -2.3900592e-05 -0.00062326528 -0.0044885104 
 1994000    2.6539432  0.023676742    28372.625    920117.34 -0.0015869628 -0.0017163115 -0.0020055777 
 1995000    2.6502164  0.023289159    28372.625    920849.35 8.2027542e-05 -0.0013725399 -0.003607423 
 1996000    2.6542569  0.023343878    28372.625    921372.49 0.0017421952 0.0016854408 -0.0031820426 
 1997000    2.6566573  0.023221922    28372.625    921605.69 0.00047091057 -0.00075684656 -0.0047188188 
 1998000    2.6575852  0.023449743    28372.625    921796.66 0.0029642568 -0.0016075409 -0.0027135638 
 1999000    2.6455571  0.024296729    28372.625    922244.73 0.0026817454 -7.7494871e-05 -0.0014705858 
 2000000    2.6505734  0.023436985    28372.625    922956.11 0.00012198021  0.001481637 -0.0036114555 
Loop time of 761.24 on 1 procs for 2000000 steps with 256 atoms

Pair  time (%) = 10.4635 (1.37453)
Neigh time (%) = 12.4942 (1.6413)
Comm  time (%) = 5.23873 (0.688185)
Outpt time (%) = 0.184946 (0.0242954)
Other time (%) = 732.858 (96.2717)

Nlocal:    256 ave 256 max 256 min
Histogram: 1 0 0 0 0 0 0 0 0 0
Nghost:    174 ave 174 max 174 min
Histogram: 1 0 0 0 0 0 0 0 0 0
Neighs:    110 ave 110 max 110 min
Histogram: 1 0 0 0 0 0 0 0 0 0

Total # of neighbors = 110
Ave neighs/atom = 0.429688
Neighbor list builds = 158070
Dangerous builds = 3304
#	run			10000
	unfix			1
	uncompute		myKE
	uncompute		myPE
	uncompute		myStress
	uncompute		flux
	uncompute		myDis
	unfix			JJ

	next seed
	next iseed
jump lmp.in.gk loop_seed
