
#------------ NVE rescale ---------------------------------------------------------------------

	velocity 		all create ${T_run} ${seed} rot yes dist gaussian
	velocity 		all create 2.6455576526946114058 ${seed} rot yes dist gaussian
	velocity 		all create 2.6455576526946114058 55555 rot yes dist gaussian

	fix 			1 all nve
	fix 			2 all temp/rescale 1 ${T_run} ${T_run} 0.01 1.0
	fix 			2 all temp/rescale 1 2.6455576526946114058 ${T_run} 0.01 1.0
	fix 			2 all temp/rescale 1 2.6455576526946114058 2.6455576526946114058 0.01 1.0
	timestep		${dt}
	timestep		0.0020000000000000000416
	thermo_style  		custom step temp press etotal vol
	thermo			1000
	run             	200000
Memory usage per processor = 1.67356 Mbytes
Step Temp Press TotEng Volume 
       0    2.6455577  0.023669049   -1.5687558    28372.625 
    1000    2.6485423  0.018591899     2.927146    28372.625 
    2000     2.643254   0.02077917    3.0367733    28372.625 
    3000    2.6508744  0.020279278    3.2075703    28372.625 
    4000    2.6455577  0.022587964    3.2451838    28372.625 
    5000    2.6527088  0.022364439    3.2927731    28372.625 
    6000    2.6506196  0.021120269     3.329606    28372.625 
    7000    2.6511347  0.022595372    3.3759172    28372.625 
    8000    2.6522196  0.021578331      3.37725    28372.625 
    9000    2.6458378    0.0215792    3.4179449    28372.625 
   10000    2.6504359   0.02202989    3.5107065    28372.625 
   11000    2.6453517  0.023010467    3.5484814    28372.625 
   12000    2.6539257  0.022378747     3.594767    28372.625 
   13000    2.6437144  0.023502255    3.5691224    28372.625 
   14000    2.6515159  0.021667731    3.6381636    28372.625 
   15000    2.6440662  0.023215697     3.708409    28372.625 
   16000    2.6529136  0.022752156    3.6757961    28372.625 
   17000    2.6371341  0.023438149    3.6834415    28372.625 
   18000    2.6370188  0.023728618    3.6990161    28372.625 
   19000    2.6483251  0.024424552    3.7358871    28372.625 
   20000    2.6412934  0.023981491    3.7548231    28372.625 
   21000    2.6505657  0.023319035    3.8162283    28372.625 
   22000     2.646621  0.023062173     3.805482    28372.625 
   23000    2.6435948  0.024098412    3.8095045    28372.625 
   24000     2.646502   0.02327959    3.8613908    28372.625 
   25000    2.6363912  0.023694684    3.8418152    28372.625 
   26000     2.644186  0.024585034    3.8911166    28372.625 
   27000    2.6424544  0.023180373    3.8759078    28372.625 
   28000    2.6507654  0.023149096    3.8779841    28372.625 
   29000    2.6471044  0.023198563    3.9095954    28372.625 
   30000    2.6493751  0.024165904    3.8985511    28372.625 
   31000    2.6509795  0.023686167    3.8693443    28372.625 
   32000    2.6463429  0.023478386    3.9168758    28372.625 
   33000    2.6397449  0.024220579    3.9045276    28372.625 
   34000    2.6418492  0.023843261    3.8925252    28372.625 
   35000     2.651161  0.023647025     3.909272    28372.625 
   36000    2.6551667  0.023457914    3.8929751    28372.625 
   37000    2.6465832  0.023134081    3.9086174    28372.625 
   38000    2.6500711  0.023482815    3.9125917    28372.625 
   39000    2.6392888  0.024264463    3.9149432    28372.625 
   40000    2.6526085   0.02439626    3.9326962    28372.625 
   41000    2.6419392  0.024222888    3.9024645    28372.625 
   42000    2.6525697  0.023369427    3.9176733    28372.625 
   43000    2.6546167  0.023336945    3.9228106    28372.625 
   44000    2.6486883   0.02320307    3.9105952    28372.625 
   45000    2.6435287  0.023470353    3.9159893    28372.625 
   46000      2.64382  0.024321062    3.9343682    28372.625 
   47000    2.6504934  0.023769209    3.9209022    28372.625 
   48000    2.6436994  0.024406693    3.8922677    28372.625 
   49000    2.6452939  0.024341191    3.9091609    28372.625 
   50000    2.6431496  0.023218106    3.9166029    28372.625 
   51000    2.6423352  0.023144134    3.8925886    28372.625 
   52000    2.6446528  0.024909232    3.8934841    28372.625 
   53000    2.6469242  0.023481386    3.9106774    28372.625 
   54000    2.6408319  0.024230753     3.909033    28372.625 
   55000    2.6473357  0.023409345    3.8958243    28372.625 
   56000    2.6487143  0.023440476    3.9094424    28372.625 
   57000    2.6427502  0.024317419    3.9124301    28372.625 
   58000     2.647261  0.023038462    3.9073884    28372.625 
   59000    2.6381894  0.023207124    3.9063033    28372.625 
   60000    2.6499983  0.023902199    3.9171047    28372.625 
   61000    2.6390706  0.023681138    3.9013633    28372.625 
   62000    2.6489661  0.024090087    3.9186924    28372.625 
   63000    2.6456528  0.023300624    3.9168598    28372.625 
   64000    2.6455577  0.024310045    3.9321488    28372.625 
   65000    2.6498015  0.023714444    3.9210608    28372.625 
   66000    2.6363686  0.023692832    3.8730983    28372.625 
   67000    2.6477154  0.023343264    3.9085518    28372.625 
   68000    2.6470309  0.023543684    3.8955801    28372.625 
   69000    2.6438068  0.023841181    3.8966034    28372.625 
   70000    2.6530189  0.023357166    3.9274376    28372.625 
   71000    2.6451858  0.024082841    3.8972069    28372.625 
   72000    2.6439537  0.023606707    3.9024087    28372.625 
   73000    2.6475789  0.023124196    3.9070761    28372.625 
   74000    2.6465942  0.023134079    3.8927039    28372.625 
   75000    2.6499524  0.023669614     3.914712    28372.625 
   76000    2.6493591  0.023968653    3.9025558    28372.625 
   77000    2.6472626  0.023749184    3.9217315    28372.625 
   78000    2.6396518  0.024407331    3.9061631    28372.625 
   79000    2.6483142  0.023736831    3.9058164    28372.625 
   80000    2.6527893  0.023307707     3.907577    28372.625 
   81000    2.6501094   0.02365079    3.9073947    28372.625 
   82000    2.6499574  0.023721657    3.9096632    28372.625 
   83000    2.6451039  0.024547741    3.9241336    28372.625 
   84000    2.6496014  0.023180457    3.9094272    28372.625 
   85000    2.6451311  0.023549177    3.9159194    28372.625 
   86000    2.6434078  0.023493215    3.9016086    28372.625 
   87000    2.6454267  0.023710572    3.9038584    28372.625 
   88000    2.6420404  0.023862509    3.9044485    28372.625 
   89000    2.6443581  0.023715886    3.9049415    28372.625 
   90000    2.6445088  0.024253441    3.9140447    28372.625 
   91000    2.6485056  0.023778001    3.9018992    28372.625 
   92000     2.649674  0.023459289    3.9194623    28372.625 
   93000    2.6380343  0.024629191    3.9183912    28372.625 
   94000    2.6425903  0.023465985    3.9041973    28372.625 
   95000    2.6432804  0.023160222    3.9045748    28372.625 
   96000    2.6437794  0.024497987    3.9154014    28372.625 
   97000     2.648416  0.023401878    3.9005997    28372.625 
   98000    2.6492495  0.025279652    3.9228367    28372.625 
   99000    2.6526885  0.023312105    3.9227741    28372.625 
  100000    2.6511038  0.023415744    3.8929306    28372.625 
  101000    2.6501357  0.023803221    3.8975654    28372.625 
  102000    2.6468192  0.023093215    3.8992349    28372.625 
  103000    2.6521688  0.023335082    3.9035804    28372.625 
  104000    2.6469343  0.024290034     3.893259    28372.625 
  105000    2.6438319  0.024757694     3.907679    28372.625 
  106000     2.646417  0.023715221    3.9085755    28372.625 
  107000     2.652099  0.023159869    3.9136913    28372.625 
  108000    2.6448184  0.023735098    3.8998691    28372.625 
  109000    2.6514617  0.023064656     3.884888    28372.625 
  110000    2.6546138  0.023762987    3.9194931    28372.625 
  111000    2.6525402  0.023625162    3.9204256    28372.625 
  112000    2.6537886  0.023286861    3.9066849    28372.625 
  113000    2.6439092  0.023297964    3.8934066    28372.625 
  114000    2.6398899   0.02362927    3.8921129    28372.625 
  115000    2.6441968  0.023135275    3.9009064    28372.625 
  116000    2.6424991  0.023606396    3.8858652    28372.625 
  117000    2.6437624  0.023910852    3.9028071    28372.625 
  118000    2.6460372   0.02310122    3.8897481    28372.625 
  119000    2.6455577  0.023835983    3.9074821    28372.625 
  120000    2.6509091  0.023329501    3.9140334    28372.625 
  121000    2.6407127  0.024354495    3.9013754    28372.625 
  122000    2.6418931  0.022997012     3.889444    28372.625 
  123000    2.6544618  0.023447033    3.8932698    28372.625 
  124000    2.6426793  0.023736492    3.9095731    28372.625 
  125000    2.6406875  0.024023602    3.9120858    28372.625 
  126000    2.6493408  0.023597988    3.9151119    28372.625 
  127000     2.650612  0.023666285    3.9160758    28372.625 
  128000    2.6478487  0.023180885    3.8895253    28372.625 
  129000    2.6425611   0.02367184    3.8945328    28372.625 
  130000     2.642495  0.023989654    3.8985859    28372.625 
  131000    2.6505694  0.023738916    3.9139629    28372.625 
  132000    2.6523664  0.023255373    3.9149096    28372.625 
  133000    2.6383309   0.02357567     3.885584    28372.625 
  134000     2.643775  0.023724162    3.9017599    28372.625 
  135000    2.6455577  0.024394046    3.8903035    28372.625 
  136000    2.6466298  0.024008233    3.9058392    28372.625 
  137000    2.6430635  0.024694459    3.9119785    28372.625 
  138000    2.6512376  0.023337762    3.9152956    28372.625 
  139000    2.6418899  0.024171136    3.9135694    28372.625 
  140000    2.6523085   0.02366355    3.9145432    28372.625 
  141000    2.6362025  0.024162707    3.9029647    28372.625 
  142000    2.6507626  0.023307175    3.9201294    28372.625 
  143000      2.64645  0.023570247    3.9080238    28372.625 
  144000    2.6484252  0.023657163    3.8939726    28372.625 
  145000    2.6470664  0.024138695    3.9104867    28372.625 
  146000    2.6532505  0.023512849    3.9174456    28372.625 
  147000    2.6545075   0.02361322    3.9160122    28372.625 
  148000    2.6443322  0.023928745     3.907005    28372.625 
  149000    2.6461009  0.023699204    3.9247884    28372.625 
  150000    2.6538694  0.023274537    3.9103654    28372.625 
  151000    2.6407794  0.023392318    3.8844416    28372.625 
  152000    2.6500156  0.023480729     3.918454    28372.625 
  153000     2.641675  0.024960786    3.9075752    28372.625 
  154000    2.6467696   0.02334145    3.8980323    28372.625 
  155000    2.6453283  0.023214223    3.9138257    28372.625 
  156000    2.6385629  0.024127453    3.9006865    28372.625 
  157000     2.642425  0.023583507    3.9020568    28372.625 
  158000    2.6436065  0.023786271    3.9049073    28372.625 
  159000    2.6482508  0.023336915    3.9108265    28372.625 
  160000    2.6511613  0.023299265    3.8970639    28372.625 
  161000    2.6397511  0.023202329    3.9135761    28372.625 
  162000    2.6488688  0.024105549    3.8990076    28372.625 
  163000    2.6442704  0.024111583    3.8957696    28372.625 
  164000    2.6485269  0.023602855    3.9105164    28372.625 
  165000    2.6490396  0.023240428    3.9143294    28372.625 
  166000    2.6373066  0.023780026    3.9025392    28372.625 
  167000    2.6517088  0.023755715    3.9056633    28372.625 
  168000    2.6486807  0.023912662    3.9264312    28372.625 
  169000    2.6400928  0.025046865    3.8993759    28372.625 
  170000    2.6404261  0.023788244    3.9050357    28372.625 
  171000    2.6385697  0.023838703    3.9095391    28372.625 
  172000    2.6455577  0.023607399    3.9016664    28372.625 
  173000    2.6465501  0.023770119    3.8951055    28372.625 
  174000    2.6454249  0.024621148    3.9140541    28372.625 
  175000    2.6466476  0.023531401    3.9066916    28372.625 
  176000    2.6489581  0.023430194    3.9243961    28372.625 
  177000    2.6515979  0.023433187    3.9116973    28372.625 
  178000    2.6457492  0.023685463    3.8958256    28372.625 
  179000    2.6523087  0.023586392    3.9247173    28372.625 
  180000    2.6360971   0.02454463    3.9097536    28372.625 
  181000    2.6533603  0.023420238    3.9238115    28372.625 
  182000    2.6412946  0.024383176    3.9088881    28372.625 
  183000    2.6514409  0.023344896    3.9245928    28372.625 
  184000    2.6455577  0.025048017    3.9421109    28372.625 
  185000    2.6509575  0.023130474    3.9113441    28372.625 
  186000     2.653572  0.023722381    3.9282718    28372.625 
  187000    2.6493564  0.023516531    3.8995964    28372.625 
  188000    2.6457652   0.02351395    3.9104793    28372.625 
  189000    2.6518927  0.023771179    3.9148691    28372.625 
  190000    2.6469926  0.023568767    3.9121239    28372.625 
  191000     2.655218  0.023378598    3.9157056    28372.625 
  192000     2.654916  0.023364215    3.9167891    28372.625 
  193000    2.6470293  0.024141136     3.917137    28372.625 
  194000    2.6439766  0.023678901    3.8871613    28372.625 
  195000    2.6440058  0.023222741    3.8885332    28372.625 
  196000    2.6542146  0.023306222    3.9054434    28372.625 
  197000    2.6528447  0.023035199     3.905537    28372.625 
  198000     2.645721  0.023612882    3.8924245    28372.625 
  199000    2.6404767  0.023173335    3.8890165    28372.625 
  200000    2.6453846  0.023395817    3.9061784    28372.625 
Loop time of 3.79058 on 1 procs for 200000 steps with 256 atoms

Pair  time (%) = 0.939089 (24.7743)
Neigh time (%) = 1.31187 (34.6088)
Comm  time (%) = 0.447489 (11.8053)
Outpt time (%) = 0.00682187 (0.179969)
Other time (%) = 1.08531 (28.6317)

Nlocal:    256 ave 256 max 256 min
Histogram: 1 0 0 0 0 0 0 0 0 0
Nghost:    159 ave 159 max 159 min
Histogram: 1 0 0 0 0 0 0 0 0 0
Neighs:    109 ave 109 max 109 min
Histogram: 1 0 0 0 0 0 0 0 0 0

Total # of neighbors = 109
Ave neighs/atom = 0.425781
Neighbor list builds = 16240
Dangerous builds = 1412
#	run             	1000
	unfix 			1
	unfix 			2

#------------ NVE -----------------------------------------------------------------------------

	fix 			1 all nve
	timestep		${dt}
	timestep		0.0020000000000000000416
	thermo_style  		custom step temp press etotal vol
	thermo			1000
	run             	100000
Memory usage per processor = 1.67356 Mbytes
Step Temp Press TotEng Volume 
  200000    2.6453846  0.023395817    3.9061784    28372.625 
  201000    2.6423204  0.023287808    3.9061749    28372.625 
  202000    2.6533743  0.024059552    3.9061491    28372.625 
  203000    2.6477562  0.023362735    3.9061731    28372.625 
  204000     2.653998  0.023340024    3.9061654    28372.625 
  205000    2.6472523  0.023352065    3.9061642    28372.625 
  206000    2.6431749  0.024616523    3.9061504    28372.625 
  207000    2.6610482  0.023692204    3.9061554    28372.625 
  208000    2.6470333  0.023434592    3.9061623    28372.625 
  209000    2.6520638  0.023773167    3.9061386    28372.625 
  210000    2.6487242  0.023081181    3.9061681    28372.625 
  211000    2.6476827  0.023338298    3.9061677    28372.625 
  212000    2.6519132  0.024055818    3.9061615    28372.625 
  213000    2.6609212  0.023467093    3.9061677    28372.625 
  214000    2.6324019   0.02493957    3.9061847    28372.625 
  215000      2.64544  0.023198394    3.9061601    28372.625 
  216000    2.6516928  0.023659087    3.9061677    28372.625 
  217000    2.6540056  0.024613005     3.906184    28372.625 
  218000    2.6397415  0.023369052    3.9061732    28372.625 
  219000     2.656005  0.023569526    3.9061684    28372.625 
  220000    2.6521279  0.023180083    3.9061736    28372.625 
  221000    2.6361021   0.02364596    3.9061566    28372.625 
  222000    2.6139573  0.025967014    3.9061761    28372.625 
  223000    2.6405939  0.023323893    3.9061648    28372.625 
  224000    2.6423388  0.023879136    3.9061447    28372.625 
  225000    2.6484299  0.024806316    3.9061729    28372.625 
  226000    2.6581062  0.023403029     3.906156    28372.625 
  227000    2.6172276  0.025291685    3.9061836    28372.625 
  228000    2.6528622   0.02328707    3.9061568    28372.625 
  229000    2.6358438  0.023318323    3.9061509    28372.625 
  230000    2.6330593  0.024708081    3.9061567    28372.625 
  231000    2.6439583  0.023592201    3.9061456    28372.625 
  232000    2.6427501  0.024102873    3.9061587    28372.625 
  233000    2.6389962  0.023557924     3.906165    28372.625 
  234000    2.6596296  0.023721704    3.9061617    28372.625 
  235000    2.6517214  0.023709327    3.9061744    28372.625 
  236000    2.6651754  0.023257167    3.9061817    28372.625 
  237000    2.6328507  0.024211635    3.9061735    28372.625 
  238000    2.6489944  0.023312322    3.9061855    28372.625 
  239000    2.6380251   0.02361922    3.9061866    28372.625 
  240000    2.6606052  0.023997799    3.9061765    28372.625 
  241000     2.647559  0.023559134    3.9061775    28372.625 
  242000    2.6503136  0.023406136    3.9061908    28372.625 
  243000    2.6546153  0.023639412    3.9061877    28372.625 
  244000    2.6356025  0.024134232    3.9061674    28372.625 
  245000    2.6453569  0.023795301    3.9061904    28372.625 
  246000     2.639462  0.023228091    3.9061986    28372.625 
  247000    2.6481476  0.023183187    3.9062045    28372.625 
  248000    2.6435468  0.024155572    3.9062041    28372.625 
  249000     2.643379  0.024036489    3.9062047    28372.625 
  250000     2.637289  0.023389643    3.9062016    28372.625 
  251000    2.6389437  0.023486949    3.9062059    28372.625 
  252000    2.6466337  0.023274622    3.9062087    28372.625 
  253000    2.6536883   0.02379085    3.9062174    28372.625 
  254000    2.6496906  0.023509826    3.9062111    28372.625 
  255000    2.6438956  0.024209447    3.9062177    28372.625 
  256000    2.6468714  0.023533719    3.9062121    28372.625 
  257000    2.6509524  0.023838135    3.9062073    28372.625 
  258000    2.6511522  0.023568354    3.9062091    28372.625 
  259000    2.6587836  0.023312055    3.9062133    28372.625 
  260000    2.6469243  0.024298088    3.9061985    28372.625 
  261000    2.6477163  0.024563012    3.9061835    28372.625 
  262000    2.6203715  0.025016378    3.9062071    28372.625 
  263000    2.6412859  0.023441628    3.9061992    28372.625 
  264000    2.6409279  0.023555788    3.9061985    28372.625 
  265000    2.6427314  0.023392066     3.906198    28372.625 
  266000    2.6565449  0.023370501    3.9061944    28372.625 
  267000    2.6381513  0.024364227    3.9062005    28372.625 
  268000    2.6448197    0.0240618    3.9061966    28372.625 
  269000    2.6386624  0.023136115     3.906192    28372.625 
  270000    2.6448849  0.023579116      3.90618    28372.625 
  271000    2.6564915  0.023317318    3.9061866    28372.625 
  272000    2.6428648  0.023781021    3.9062002    28372.625 
  273000    2.6455893  0.023328058    3.9062038    28372.625 
  274000    2.6482022  0.023438815    3.9062089    28372.625 
  275000    2.6404593  0.023881933    3.9062083    28372.625 
  276000    2.6476095   0.02374082     3.906211    28372.625 
  277000    2.6479384  0.023838625    3.9062009    28372.625 
  278000    2.6512718  0.023581412    3.9062099    28372.625 
  279000    2.6380906  0.024157487    3.9061993    28372.625 
  280000    2.6516316   0.02327185    3.9061961    28372.625 
  281000    2.6450764  0.023971383    3.9061843    28372.625 
  282000     2.641473  0.023501502    3.9061908    28372.625 
  283000    2.6362156  0.024189059    3.9062069    28372.625 
  284000    2.6324741  0.024421671    3.9061969    28372.625 
  285000    2.6473441  0.023865965       3.9062    28372.625 
  286000     2.639577  0.023762085    3.9061834    28372.625 
  287000    2.6497373  0.023671728    3.9061893    28372.625 
  288000     2.648847  0.023830412    3.9061966    28372.625 
  289000    2.6527736  0.023863292    3.9061829    28372.625 
  290000    2.6500718  0.024212992    3.9061553    28372.625 
  291000    2.6568929  0.023325277    3.9061953    28372.625 
  292000    2.6358395   0.02435528    3.9062062    28372.625 
  293000    2.6433393  0.023898532    3.9062037    28372.625 
  294000    2.6412843  0.023113449    3.9062027    28372.625 
  295000    2.6495268  0.023120717    3.9062066    28372.625 
  296000    2.6373278  0.023463598    3.9062038    28372.625 
  297000    2.6405549  0.023727289     3.906198    28372.625 
  298000    2.6457099  0.023187662    3.9061982    28372.625 
  299000    2.6339274   0.02358309    3.9061876    28372.625 
  300000    2.6417081  0.023312189    3.9062018    28372.625 
Loop time of 1.8093 on 1 procs for 100000 steps with 256 atoms

Pair  time (%) = 0.386176 (21.344)
Neigh time (%) = 0.703154 (38.8634)
Comm  time (%) = 0.238319 (13.1719)
Outpt time (%) = 0.00383759 (0.212104)
Other time (%) = 0.47781 (26.4086)

Nlocal:    256 ave 256 max 256 min
Histogram: 1 0 0 0 0 0 0 0 0 0
Nghost:    172 ave 172 max 172 min
Histogram: 1 0 0 0 0 0 0 0 0 0
Neighs:    96 ave 96 max 96 min
Histogram: 1 0 0 0 0 0 0 0 0 0

Total # of neighbors = 96
Ave neighs/atom = 0.375
Neighbor list builds = 8443
Dangerous builds = 1062
#	run             	10000
	unfix 			1

#------------ kappa -------------------------------------------------------------------------
log 	log_kappa_${iseed}.lammps
log 	log_kappa_5.lammps
