	reset_timestep  	0
	fix 			1 all nve
	compute   		myKE all ke/atom
	compute   		myPE all pe/atom
	compute   		myStress all stress/atom virial
	compute   		flux all heat/flux myKE myPE myStress
	variable  		Jx equal c_flux[1]/vol
	variable  		Jy equal c_flux[2]/vol
	variable  		Jz equal c_flux[3]/vol
	fix       		JJ all ave/correlate $s $p $d c_flux[1] c_flux[2] c_flux[3] type auto file J0Jt_${iseed}.dat ave running
	fix       		JJ all ave/correlate 5 $p $d c_flux[1] c_flux[2] c_flux[3] type auto file J0Jt_${iseed}.dat ave running
	fix       		JJ all ave/correlate 5 200000 $d c_flux[1] c_flux[2] c_flux[3] type auto file J0Jt_${iseed}.dat ave running
	fix       		JJ all ave/correlate 5 200000 1000000 c_flux[1] c_flux[2] c_flux[3] type auto file J0Jt_${iseed}.dat ave running
	fix       		JJ all ave/correlate 5 200000 1000000 c_flux[1] c_flux[2] c_flux[3] type auto file J0Jt_3.dat ave running
#	fix       		JJ all ave/correlate $s $p $d c_flux[1] c_flux[2] c_flux[3] type auto ave running
#	dump			JJ all custom 1000000 J0Jt.dat f_JJ[3] f_JJ[4] f_JJ[5]
	compute 		myDis all msd
	thermo_style 		custom step temp press vol c_myDis[4] v_Jx v_Jy v_Jz
	thermo			1000
	timestep		${dt}
	timestep		0.0020000000000000000416
	run			2000000
Memory usage per processor = 3.08201 Mbytes
Step Temp Press Volume myDis[4] Jx Jy Jz 
       0    2.6837442      0.02388    28372.625            0 -0.0037694331 -0.0018379037 -0.0010559666 
    1000    2.6752326   0.02442498    28372.625    30.905769 -0.0034504486 0.00068794939 -0.0023302088 
    2000    2.6855467  0.023802963    28372.625    120.58394 -0.0022713496 0.0010036009 0.00066287645 
    3000    2.6802267  0.023728247    28372.625    259.42692 -0.0015815313 0.00029607487 0.0028156636 
    4000    2.6809856  0.024875543    28372.625    435.16667 0.0038176209 -0.0014990762 0.0020703665 
    5000    2.6785922  0.023984307    28372.625    644.23529 0.0022162459 0.0020478874 0.0034621983 
    6000    2.6851822  0.024665266    28372.625     885.6954 0.0019333049 0.0029993271  0.002597559 
    7000    2.6969582  0.023531253    28372.625    1154.1832  0.001901762  0.002087669 0.00030059797 
    8000    2.6862711  0.024340908    28372.625    1450.2363 0.0051543049 0.0056890075 -0.0012726591 
    9000    2.7005478  0.023819854    28372.625    1783.5423 0.0039196382 0.0054653398 -0.0028021061 
   10000    2.6907246  0.024169323    28372.625    2154.2168 0.0019009794 0.0019666205 -0.0017781419 
   11000     2.691165  0.024175627    28372.625    2546.7493 0.0021032514 0.0026218557 -0.00041992159 
   12000    2.6891514  0.023893247    28372.625    2943.7124 0.0019602268 0.0005246214 0.0014496864 
   13000    2.6850612  0.023851169    28372.625    3340.9738 0.00040182867 -0.00036437948 -0.0002416211 
   14000    2.6834135   0.02419916    28372.625    3760.4013 -0.0020668459 0.00014029688 -0.00028708422 
   15000    2.6776588  0.025202937    28372.625    4201.7639 -0.0027400241 -0.0020485581 0.00092787214 
   16000    2.6879489  0.024028165    28372.625    4668.8662 -0.0019648884 -0.00091271472 0.0017276118 
   17000    2.6797699  0.023537002    28372.625    5153.7448 -0.0026570161 0.00057124375 0.0010064112 
   18000    2.6780151  0.024693268    28372.625    5647.1396 -0.00035366335 -0.00055208172 -0.0017489002 
   19000    2.6790421  0.024028994    28372.625    6098.3001 -0.0003043966 -0.00050355026 0.0016625168 
   20000    2.6908003  0.023638683    28372.625     6514.463 -0.0028111191 -0.0014548849 -0.00012861044 
   21000    2.6922906  0.023564772    28372.625    6941.7219 -0.00082692583 -0.0018434122 -0.0022483733 
   22000    2.6918634  0.024061458    28372.625    7368.8214 -5.892581e-06 -0.0006920279 -0.00088317753 
   23000    2.6867274  0.024203424    28372.625    7802.2249 -0.0022586683 -0.002372251 -0.003028963 
   24000    2.6892618  0.024030865    28372.625    8230.7668 -0.000934066 -0.00097162381 -0.00017616076 
   25000    2.6964798  0.023893578    28372.625    8682.6647 -0.0019482551 -0.00010763711 0.0013503429 
   26000    2.6779177  0.024117447    28372.625    9104.4257 -0.00075837536 0.00091323953  0.002182654 
   27000    2.6965439  0.023508228    28372.625    9486.8374 -9.364006e-05 -0.0017893123 0.0038807558 
   28000    2.6888701  0.024094966    28372.625    9887.8577 -0.0017384053 0.0039582793 0.0029841773 
   29000    2.6905874  0.023753464    28372.625    10295.918 0.00079499308 0.0046026009 0.0039260597 
   30000     2.686955  0.024255792    28372.625    10716.129 7.7415037e-05 0.0043222254 0.0034226837 
   31000    2.6799942  0.023522192    28372.625    11154.808 0.0017554165 0.0054335707 0.0029274267 
   32000    2.6918352   0.02383468    28372.625    11579.427 0.00087270655 0.0047712831 0.00086359148 
   33000    2.6817842  0.023791391    28372.625    11994.413 0.00060548369 0.0058317958 0.00043984523 
   34000    2.6863218  0.023824182    28372.625    12406.316 0.0042579637 0.0038412473 -0.0020271889 
   35000    2.6899561  0.023910299    28372.625    12829.397 0.0093250412 0.0014711118 -0.0032222471 
   36000    2.6880599  0.023841284    28372.625    13272.502  0.010425158 0.0058287519 -0.0026833986 
   37000    2.6897775   0.02370364    28372.625      13715.9  0.010591164 0.0055198133 -0.0022977482 
   38000    2.6874976   0.02480295    28372.625    14202.109   0.01158317 0.0055660178 -0.0036891554 
   39000     2.671104  0.024234521    28372.625    14721.902 0.0085263945 0.0023080305 -0.0029548876 
   40000    2.6898643   0.02381934    28372.625    15256.517 0.0094580304   0.00429619 -0.0018522019 
   41000    2.6863158   0.02359752    28372.625    15798.921 0.0061287471 0.0024433718  0.001448898 
   42000     2.686297  0.024168617    28372.625    16358.617 0.0040031845 0.0024348558 -0.0016714284 
   43000    2.6950197  0.023867316    28372.625    16919.023 0.0035344965 0.0012050048 -0.0032616654 
   44000    2.6878505  0.024160636    28372.625    17472.173 0.0027388871 0.0035399668 -0.0018536943 
   45000    2.6745942  0.025740858    28372.625    18009.978 0.0067529825 0.00037151017 -0.0064780245 
   46000    2.6788039  0.024328122    28372.625     18539.74 0.0051238115 0.0019418154 -0.0044770619 
   47000    2.6827314  0.024052794    28372.625    19048.513 0.0072066465 0.0041125056 -0.0047418567 
   48000    2.6989547  0.023559429    28372.625    19542.402 0.0056810046 0.0046308057 -0.0035882104 
   49000    2.6880001  0.024097917    28372.625     20064.95 0.0068341531 4.6348951e-05 -0.0020524152 
   50000    2.6869718  0.024024053    28372.625    20629.069 0.0065671717 0.0023566772 -0.003050651 
   51000    2.6855369  0.024607301    28372.625    21218.822 0.0071058675 0.00038803426 0.0014992327 
   52000    2.6773312  0.023518372    28372.625    21822.576 0.0036355561 0.00098271191 -0.0009653659 
   53000    2.6852504  0.024069157    28372.625    22444.219 0.0046817663 0.0026400586 -0.00058140972 
   54000    2.6795212  0.025272865    28372.625    23069.209 0.0080051485 0.0011523436 -0.0025821934 
   55000    2.6857282  0.023669793    28372.625    23650.091 0.0047987212 -0.0013143065 -0.00028743554 
   56000    2.6954395  0.024737713    28372.625    24193.954 0.0066595071 0.0018645221 -0.0026554162 
   57000    2.6666306  0.024082321    28372.625    24690.176 0.0042966711 0.0038509397 0.0015956737 
   58000    2.6880078  0.023423307    28372.625    25158.051 0.0031170487 0.0021907053   0.00143656 
   59000    2.6793608  0.023570659    28372.625     25628.39 0.0052944236 0.0029239157 0.0031618503 
   60000    2.6834379  0.024331005    28372.625    26099.812 0.0036308105 0.0019241213 0.0035588963 
   61000    2.6706519  0.024957312    28372.625    26590.809 -0.0013373386 0.0016407418 0.0013119039 
   62000    2.6931745   0.02404105    28372.625    27056.371 0.0022274671  0.003845895   0.00159605 
   63000    2.6891689  0.024443757    28372.625     27523.43 0.0040927117 0.0081598424 0.0015642727 
   64000    2.6725423  0.024115385    28372.625    27953.815 -0.00010806338 0.00033581726 0.0019361999 
   65000    2.6900702   0.02396196    28372.625    28432.403 0.00081020835 0.00069446837 0.0047558946 
   66000    2.6914161  0.024018322    28372.625    28948.141 0.0016670849  0.002627374 0.0050482206 
   67000     2.694356  0.023282265    28372.625    29425.795 0.0014433237 0.0035611297 0.0024458173 
   68000    2.6890531  0.023829718    28372.625    29874.152 0.0022495125 -0.00020886591 0.0027475074 
   69000    2.6634236  0.024964879    28372.625    30347.919 0.0053018641 0.0039539107  0.003638942 
   70000     2.670711  0.024161125    28372.625    30806.074 0.0011321705 -0.0022429842 -0.0020864223 
   71000    2.6888401  0.024066055    28372.625    31214.671 0.0044309712 -0.00077250868 -0.0036688261 
   72000    2.6954787  0.024277076    28372.625    31605.058 0.0037938725 -0.0017475501 -0.0027806425 
   73000    2.6903471  0.024076221    28372.625    32027.851 0.0017804433 0.0013118628 -0.0050873415 
   74000    2.6858225  0.025260954    28372.625    32448.146 -0.0050108654 0.0016748919 -0.0042953435 
   75000    2.6862273  0.024080967    28372.625    32788.651 0.0024756194 0.0013500057 -0.010699056 
   76000    2.6894411  0.023899279    28372.625    33108.365  0.001265457 0.0013698426 -0.0077349464 
   77000    2.6941231  0.024157867    28372.625     33441.73 -0.00084172109 0.00097863084 -0.0078754178 
   78000    2.6986369   0.02369899    28372.625    33741.235 -0.00063310657 0.0043627306 -0.0085318822 
   79000    2.6919561  0.023975238    28372.625    34100.309 -0.0022633377 0.0026643944 -0.0069614903 
   80000    2.6807657  0.024125511    28372.625    34431.814 -0.0033149655 0.0034970148 -0.0076267413 
   81000    2.6798274  0.023907994    28372.625    34746.833 -0.0015356725 0.0035284898 -0.0068943914 
   82000    2.6864743  0.023823877    28372.625    35072.359 -0.001202942 0.0012339334 -0.007703464 
   83000    2.6968357  0.024517125    28372.625     35367.98 -0.0041323252 0.0012760062 -0.0056729112 
   84000    2.6956153  0.024212162    28372.625    35698.585 -0.0066539511 0.00048457255 -0.0056854448 
   85000    2.6895689  0.024314918    28372.625    36106.494 -0.0035123465 -0.0023255921 -0.0074328883 
   86000    2.6864097  0.023833855    28372.625     36526.79 -0.0016497035 -0.0066811897 -0.0067173625 
   87000    2.6760038  0.024068439    28372.625    36973.735 0.00063827035 -0.0069614151 -0.006377343 
   88000    2.6853519  0.023819544    28372.625    37391.554 0.0038668976 -0.0051486555 -0.0022123377 
   89000    2.7000577  0.023727753    28372.625    37772.687 0.00094873528 -0.0021908375 -0.0048130662 
   90000    2.6886412  0.023436715    28372.625    38190.151 0.0024315416 -0.0054728892 -0.0069878733 
   91000    2.6809626  0.023793778    28372.625    38636.408 0.0026463501 -0.0057821471 -0.0072588577 
   92000    2.6852386  0.024436798    28372.625     39087.15 0.0039356571 -0.0039106365 -0.0071622568 
   93000    2.6926178  0.024098605    28372.625    39509.016 -0.00074664219 -0.0065872955 -0.0025671622 
   94000    2.6845701  0.023667664    28372.625    39908.207 0.0013787795 -0.0063917217 -0.0044991688 
   95000    2.6937688  0.023673403    28372.625    40286.094 -0.0012923171 -0.0082412529 -0.0037025648 
   96000    2.6889065  0.024459538    28372.625    40702.982 -0.0083147856 -0.0045670249 -0.0057309518 
   97000    2.6916312  0.023767194    28372.625    41139.589 -0.0042156468 -0.0041609564 -0.0038107251 
   98000    2.6875234  0.024854583    28372.625    41577.204 -0.0025946081 -0.0029628392 -0.00090536134 
   99000    2.6826839  0.023706703    28372.625    42019.974 -0.0038804945 -0.00056994096 -0.0027082785 
  100000    2.6807444  0.024239052    28372.625    42467.951 -0.0048612904 0.0011794412 -0.0026702077 
  101000    2.6873192  0.023972762    28372.625    42894.829 -0.0065428614 5.6730724e-06 0.00069788897 
  102000    2.6820228   0.02360906    28372.625     43316.81 -0.0085021854 -0.0030437326 0.00055814191 
  103000    2.6732936  0.024689464    28372.625    43831.986 -0.0097332731 -0.0019830284 0.00046654137 
  104000    2.6807835  0.024035366    28372.625    44331.595 -0.0087946718 -0.00099984208 -0.00040918188 
  105000    2.6919855  0.023815562    28372.625    44824.756 -0.005973557 0.0010959659 -0.002454914 
  106000    2.6720668  0.024818086    28372.625    45307.654 -0.0083113999 -0.002286202 -0.00093026631 
  107000    2.6963495  0.023908421    28372.625    45782.237 -0.0012594923 0.00030991544 -0.0020277931 
  108000    2.6888235  0.023898008    28372.625    46251.738 0.00012935242 0.0031262457 -0.0019259041 
  109000    2.6829211  0.024763423    28372.625    46776.134 0.0037415479 0.0040558732 -0.0064330036 
  110000    2.7081916  0.024045119    28372.625    47284.583 -0.0012998746 0.0016204379 -0.0055122545 
  111000    2.6847822  0.023755579    28372.625    47802.971 4.7770927e-05 -0.0002745319 -0.0051977924 
  112000    2.6613614  0.025154943    28372.625     48355.58 0.0013017838 -0.00093827748 0.00021804298 
  113000    2.6804376  0.023563179    28372.625     48942.83 0.0014435147 -0.003030803 -0.0015857259 
  114000    2.6784296  0.023985177    28372.625    49484.596 2.0131995e-05 -0.0040799696 -0.00016610117 
  115000     2.688401   0.02370358    28372.625    50028.694 0.00068557392 -0.0037507458 0.0030633139 
  116000    2.6825334  0.023575951    28372.625    50552.666 -0.0022982514 -0.0026781398 0.0029343902 
  117000     2.693175  0.023997636    28372.625    51099.286 -0.0023768276 -0.0010781034 0.0032829543 
  118000    2.6924018  0.023948455    28372.625    51660.358 -0.00086281793 0.0015637263 0.0044772181 
  119000    2.6805269  0.024760637    28372.625    52197.472 -0.00078329582 0.0042301401 0.0091476909 
  120000    2.6851747  0.024799085    28372.625    52759.915 0.0015976267 0.0015607962 0.0059604725 
  121000    2.6932164  0.024251166    28372.625    53330.466 0.0029696243 0.0018930317 0.0023420865 
  122000    2.6723451  0.024106145    28372.625     53923.13 0.0025011307 0.0072668058 0.0034729526 
  123000    2.6856283   0.02344777    28372.625    54521.514 0.0024807332 0.0075698122 0.0040002106 
  124000     2.685523  0.023819986    28372.625    55146.158 0.0019479849  0.008394926 0.0040297371 
  125000    2.6993818  0.025559783    28372.625    55711.364 -0.0017394024 0.0073339283 -0.00067270873 
  126000    2.6864926  0.024144735    28372.625    56209.214 -0.0012538813 0.0093286402 -0.00098584815 
  127000    2.6555825  0.025475029    28372.625    56681.844 -0.0040835312  0.010313849 -0.00013762936 
  128000    2.6894183  0.024100429    28372.625    57088.636 -0.0028223587 0.0052420003 -0.0004136401 
  129000    2.6894784   0.02375673    28372.625    57502.977 -0.0053992398 0.0021411115 0.0039413984 
  130000    2.6889188  0.024012371    28372.625    57885.316 -0.003115871 0.0019077207 0.00021166439 
  131000    2.6793648   0.02370772    28372.625    58347.632 -0.002031695 0.00029109759 -0.0010849043 
  132000    2.6739426  0.023667899    28372.625    58793.617 -0.002652149 0.0011416059 -0.0013666898 
  133000    2.6885653  0.024312665    28372.625    59265.572 -0.0027560506 0.0020154694 -0.00025022885 
  134000    2.6897702  0.024860706    28372.625    59787.523 -0.00099817489 -0.0022062987 0.0014285414 
  135000    2.6943704  0.023596518    28372.625    60376.287 -0.0022829962 0.00081577391 0.0028422589 
  136000    2.6805966  0.024714849    28372.625    60915.154  0.003053613 0.0028902773 0.0057340364 
  137000    2.6871324  0.023543726    28372.625    61429.344 0.0002958054 0.00051928497 0.0046929523 
  138000    2.6838019  0.023504291    28372.625    61905.525 7.8675785e-05 0.0005379864 0.0058387601 
  139000    2.6835804  0.025439011    28372.625    62378.948 -0.002882823 0.0021530004 0.0027786322 
  140000    2.6879025  0.023438022    28372.625    62866.102 -0.00070477227 -0.00013365214 0.0061611656 
  141000    2.6817593   0.02411705    28372.625    63325.724 -0.0031635938 0.00068483039 0.0064612279 
  142000     2.682532  0.023525255    28372.625    63791.165 -0.0021891138 0.00077214883 0.0050015338 
  143000     2.683092  0.023698335    28372.625    64312.023 0.00050123404 -0.00075621415  0.003881531 
  144000    2.6849735  0.024890333    28372.625    64815.195 0.0010805047 -0.0012937739 0.0044811701 
  145000    2.6757511  0.024834541    28372.625    65322.224 0.0028982569 -0.002605871 0.0044492351 
  146000     2.681206   0.02376512    28372.625    65760.699  0.002095092 -0.00093668204 0.0077893897 
  147000    2.6831131  0.024369427    28372.625     66180.65 0.0010118523 -0.0023337754  0.011598098 
  148000    2.6856495  0.023653105    28372.625    66609.201 0.0024992541 -0.0016745208 0.0099221177 
  149000    2.6924599   0.02462947    28372.625      67070.9 -4.300447e-05 -0.0051428329  0.011492979 
  150000    2.6702898  0.024783255    28372.625    67584.208 -0.0016678042 -0.0034425694 0.0086034396 
  151000    2.6902822  0.024124383    28372.625    68081.026 0.00040668035 -0.0048563001  0.011810993 
  152000    2.6772732  0.024194486    28372.625    68579.007 -0.001769912 -0.0063554616  0.009433619 
  153000    2.6943204  0.023707013    28372.625     69120.69 -0.0020739623 -0.0086849644   0.00749733 
  154000    2.6786237  0.023848518    28372.625    69566.557 -0.0031579676 -0.0075182577 0.0074208049 
  155000    2.6814275  0.023855739    28372.625    70029.306 -0.008577438 -0.0040129599 0.0037640097 
  156000     2.685442  0.023785295    28372.625     70475.88 -0.010770544 -0.0031497126 0.0038533098 
  157000    2.6937984  0.023732039    28372.625    70882.316 -0.0099752557 -0.0050900036 0.0042331029 
  158000    2.6892354  0.023790674    28372.625    71283.677 -0.010184977 -0.0067611772 0.0059124064 
  159000    2.6939477  0.024570099    28372.625      71646.4 -0.0089462471 -0.0062873428 0.0053161771 
  160000    2.6945714  0.023664807    28372.625    72008.585 -0.0062199888 -0.0041165428  0.008774004 
  161000    2.6862842  0.024084512    28372.625    72355.609 -0.0040455738 -0.0068332501 0.0075055737 
  162000    2.6846452  0.023539313    28372.625    72608.506 -0.0032973059 -0.0083759408 0.0044609796 
  163000    2.6847987  0.023654302    28372.625    72940.281 -0.0033362732 -0.010700738  0.003471659 
  164000    2.6661506  0.025416695    28372.625    73292.097 -0.0036652089 -0.0090397006 0.0028678012 
  165000    2.6843691  0.024021866    28372.625    73742.536 -0.0012298587 -0.0069018537 0.0074969324 
  166000    2.6816013  0.024528936    28372.625    74268.349 -0.0012346615 -0.00035625073 0.0036317419 
  167000    2.6829344  0.023604165    28372.625    74700.489 0.0021967911 -0.0019382977 0.0033501999 
  168000    2.7068507  0.023792769    28372.625    75010.835 0.0031467024 -0.0033124884 0.0039899009 
  169000    2.6930858  0.023832664    28372.625    75340.344 0.0041582401 -0.0026682782 0.0056071813 
  170000    2.6940871  0.024447067    28372.625    75721.263 0.0039998428 -0.00090838521 0.0034268634 
  171000    2.6877587  0.024563529    28372.625    76124.664 -0.0012039713 -0.00051951729 0.0092997273 
  172000    2.6853353  0.025263404    28372.625    76632.458 -0.00092568388 -0.006235566 0.0056916199 
  173000      2.69808  0.023962134    28372.625    77108.269 0.0010267674 -0.0043501949 0.0071557978 
  174000    2.6901692  0.024606349    28372.625    77557.765 -0.0002809517 -0.0010344153 0.0022693889 
  175000     2.689298  0.023798455    28372.625    78009.553 -0.0016014348 -0.0016931889 0.0036648137 
  176000    2.6853073  0.023911549    28372.625    78434.771 -0.0043439835 -0.0018862053  0.010405195 
  177000    2.6799219  0.024222276    28372.625    78831.855 -0.0056192819 0.0017921598 0.0050298846 
  178000    2.7024513  0.023775319    28372.625    79262.907 -0.0055016916 0.0023115221 0.0042706468 
  179000    2.6964071  0.023844542    28372.625     79686.55 -0.0044447926 7.441369e-07 0.0025853779 
  180000    2.6874462  0.024797201    28372.625    80189.735 -0.00063478005 0.0041518193 0.00038173638 
  181000    2.6863038  0.024165073    28372.625    80698.126 -0.0017286555 0.0046073199 0.0040246354 
  182000     2.681714  0.025119952    28372.625    81069.272 0.0076828517 0.00040870085 -0.004754066 
  183000    2.6950826  0.023885009    28372.625    81472.299 -0.0036445464 0.0029921775 0.00046069395 
  184000    2.6724398  0.024438886    28372.625     81923.39 -0.00072064938 0.00040329419 -0.0045531251 
  185000    2.6939641  0.023619213    28372.625    82372.435 -0.0030759368 0.00046092728 -0.001926942 
  186000    2.6864843  0.023944449    28372.625     82806.18 -0.0030557562 0.0012599191 -0.0035039218 
  187000    2.6638263  0.025232079    28372.625    83200.357 -0.0028882783 0.00077000742 -0.0018011083 
  188000    2.6943826  0.024127047    28372.625    83606.142 -0.0017326828 -0.00091109111 -0.0033276656 
  189000    2.6880629  0.024500824    28372.625    83989.735 -0.0026078313 6.404393e-05 -0.0024601595 
  190000    2.6779448  0.023481358    28372.625    84406.773 -0.0033994157 0.0043616189 -0.0041015691 
  191000    2.6823476  0.024279895    28372.625    84790.202 -0.0027854619 0.0024522995 -0.0017600167 
  192000    2.6880308  0.023813231    28372.625    85090.455 -0.0018048644 0.0019448128 0.0046156078 
  193000    2.6589243  0.026858388    28372.625    85354.617 -0.0013629192 0.0018057747 0.0071753658 
  194000    2.6843261  0.024131736    28372.625    85540.659 0.00071925337 -0.0019082164 0.0012803173 
  195000    2.6846044  0.024383824    28372.625    85737.292 -0.0017456361 -0.0039736732 0.0014898632 
  196000     2.686729  0.024807158    28372.625    85983.106 -0.0018663998 -0.0058314718 0.00041730693 
  197000    2.7014898  0.024685541    28372.625    86236.779 -0.0046165121 -0.0062824876 0.00032203606 
  198000    2.6808639   0.02376559    28372.625    86479.671 -0.0028290825 -0.0046094362 0.00033540598 
  199000     2.685029   0.02443024    28372.625    86721.905 -0.0074899874 -0.0020389312 0.0013057803 
  200000    2.6846578  0.023533526    28372.625    86997.401 -0.0089783693 -0.0032673315 -3.6676674e-05 
  201000     2.682683  0.024227663    28372.625    87317.113 -0.0078509145 -0.0057774355 -0.0029111943 
  202000    2.6945688  0.023894206    28372.625    87645.032 -0.0081415403 -0.0045890284 -0.0010443257 
  203000    2.6675022  0.024745325    28372.625    87950.349 -0.0096897689 -0.0022594237 -0.00018634212 
  204000    2.6968638  0.023647946    28372.625    88270.174 -0.0053717585 0.0018275981 -0.0028466406 
  205000    2.6873478  0.023586456    28372.625    88625.209 -0.0062090021 -6.8210968e-05 0.0013118423 
  206000    2.6968586  0.023996088    28372.625    88999.655 -0.002411302 0.0028228289 -0.0001217586 
  207000    2.6813766  0.024671802    28372.625    89399.873 -0.0013701511 0.0018708223 -0.0055669648 
  208000    2.6745527  0.023532193    28372.625    89832.091 -0.0033590286 -0.0034634937 -0.0051673524 
  209000     2.693247  0.024222095    28372.625    90298.887 -0.0028761514 -0.0032616067 -0.0058728147 
  210000    2.6859252  0.023985113    28372.625    90878.178 -0.0020904184 -0.004273182 -0.003197599 
  211000    2.6961339  0.024185849    28372.625    91493.788 -0.001407689 -0.00021402763 0.0001524396 
  212000    2.6896369    0.0234514    28372.625    92129.598 0.0015992935 0.0020499801 0.0023106884 
  213000    2.6804435  0.023573368    28372.625    92773.809 0.0014473989 0.0030985371 -0.0005708621 
  214000    2.6815207  0.024151349    28372.625    93405.159 0.0018530975 0.0033708326 -0.0029256652 
  215000    2.6789014  0.024857828    28372.625    93926.307 0.0016452326 0.0030567874 -0.0038511231 
  216000    2.6783979  0.023614529    28372.625    94399.013 0.0014066651 0.0041565185 -0.0033979554 
  217000    2.6762264  0.024961753    28372.625    94931.119 0.0024748746 0.0038482643 -0.003743536 
  218000    2.6864224  0.023491158    28372.625    95490.622 0.0027497941 0.0042126401 -0.0050922588 
  219000    2.6914778  0.023943694    28372.625    96080.844  0.004819564 0.0057050942 -0.0045037869 
  220000    2.6893898  0.023980441    28372.625    96715.148 0.0049351154 0.0034545627 -0.0026847208 
  221000    2.6834165  0.023757002    28372.625    97413.953 0.0038066827 0.0047194128 -0.0036696544 
  222000    2.6898023  0.023666927    28372.625    98085.591 0.0044347198  0.002974147 -0.0039072656 
  223000    2.6813672  0.023846596    28372.625    98749.934 0.0043372848  0.002476995 -0.0036711504 
  224000    2.6782618  0.024326034    28372.625    99391.581 0.0045508518 0.0037222679 -0.0030497536 
  225000    2.6946765  0.024308326    28372.625    99988.514  0.005171519 0.0065958782 -0.0038533298 
  226000     2.675299  0.025109523    28372.625    100511.05 0.0042898495 0.0050970284 -0.0042956086 
  227000    2.6798082  0.024046597    28372.625    101058.74 -0.0020615809 0.0032164547 -0.0066276601 
  228000     2.673252  0.024448711    28372.625    101584.92 -0.0081675092 0.0045288129 -0.0087320952 
  229000    2.6771951  0.024313333    28372.625     102131.2 -0.0016884908 0.0003290529 -0.014860688 
  230000    2.6913522   0.02428437    28372.625     102681.6 -0.0036576833 0.0016519236 -0.010626951 
  231000    2.6721955   0.02615239    28372.625     103309.4 -0.0023236898 -3.1039736e-05 -0.010535328 
  232000    2.6996552  0.024283566    28372.625    103998.15 -0.0010135508 -0.0015844835 -0.0083045644 
  233000    2.6703721  0.025289793    28372.625    104542.74 -0.00038902106 -0.0014606334 -0.0066672291 
  234000    2.6974067  0.023713194    28372.625    104999.09 0.0020864711 -0.0034678175 -0.0079965295 
  235000    2.6870544   0.02383474    28372.625    105400.87 0.00035382016 -0.0038726001 -0.0068395471 
  236000    2.6829759  0.024535635    28372.625    105839.82 0.0023081601 -0.0052980784 -0.0093396196 
  237000    2.6797494  0.024203894    28372.625    106297.18 0.00040498392 -0.0054898934 -0.0072448382 
  238000    2.6882067  0.023605425    28372.625    106783.62 0.00097851117 -0.0059487909 -0.0071523919 
  239000    2.6847623  0.024023644    28372.625    107431.79 0.00011464266 -0.0074731148 -0.0090061716 
  240000    2.6805275  0.024866691    28372.625    108133.34 0.0010962754 -0.0062689989 -0.011632535 
  241000    2.6892949  0.023975313    28372.625    108819.42 -0.0045321043 -0.0040708062 -0.010967345 
  242000    2.6824534  0.024302436    28372.625    109595.18 -0.0056596786 -0.0024327415 -0.011160579 
  243000    2.6860253  0.024011018    28372.625    110270.96 -0.0047607711 -0.0042326502  -0.01211563 
  244000    2.6773721  0.023571191    28372.625    110917.81 -0.0039366922 -0.0016133985 -0.011333598 
  245000    2.6944548  0.023741464    28372.625     111590.9 -0.0021840706 -0.0014689389 -0.011272088 
  246000    2.6944015  0.024203014    28372.625    112298.84 -0.0038257328 0.00037248092 -0.0088972434 
  247000    2.6941874  0.023883253    28372.625    112973.16 -0.0054949958 0.0015235387 -0.0096584856 
  248000    2.6812121  0.023651256    28372.625    113645.48 -0.0038532871 0.0033945197 -0.0064320745 
  249000    2.6860114  0.023616008    28372.625    114358.14 -0.0015763225 0.0056342055 -0.0054933431 
  250000    2.6812537  0.023532743    28372.625    115069.22 0.00024696585 0.0074188555 -0.0037924216 
  251000    2.6811043  0.024250441    28372.625    115725.13 0.00038834148 0.0039330996 -0.0068207682 
  252000    2.6765278  0.025387233    28372.625    116322.97 -0.0016390879 0.0032866025 -0.0099811205 
  253000    2.6872563  0.023952241    28372.625    116875.34 -0.00096595729 0.0023859434 -0.010127822 
  254000    2.6879276  0.023720313    28372.625     117398.6 0.00075261541 0.0017005244 -0.0098792695 
  255000    2.6824796  0.024610233    28372.625    117900.86 0.00034127535 0.0014147777 -0.0088707247 
  256000    2.6921789  0.023766725    28372.625    118305.41 -0.00048265708 -0.00047575892 -0.0059669904 
  257000    2.6851072  0.023542452    28372.625    118668.42 -0.0055311359 0.0014926902 -0.0032844645 
  258000    2.6849506  0.024525142    28372.625    119044.23 -0.0052076005 0.0035689913 -0.001667046 
  259000    2.6888265  0.023818953    28372.625    119497.03 -0.0043483043 0.0037568701 -0.00064438074 
  260000    2.6856473  0.024181079    28372.625    119925.58 -0.0011409791 0.0016477252 -0.00083014168 
  261000    2.6825034  0.023711254    28372.625    120311.17 -0.00022904078 0.0054552157 -0.0019497744 
  262000    2.6853692  0.023798738    28372.625     120654.8 0.0016321098  0.005727794 -0.00016896017 
  263000    2.6880966  0.023497748    28372.625    120959.97 0.0032785857 0.0063147119 -0.00097749132 
  264000    2.6898854  0.023673338    28372.625    121254.06 0.00040402507 0.0033873733 -0.0021098744 
  265000    2.6776712  0.025067926    28372.625    121579.43 0.0028872781 0.0077040117 0.0046779942 
  266000    2.6837485  0.023880431    28372.625    121889.46 -0.0014393432 0.0035094293 0.0016028709 
  267000    2.6834982  0.024173644    28372.625    122102.81 0.0012584358 0.0032418453 0.0013431882 
  268000    2.6899856  0.023848119    28372.625    122318.31 0.0020354372 0.0068937296 0.0018793899 
  269000    2.6907719  0.024253859    28372.625    122558.28 0.0010027151  0.008100092 0.0012978134 
  270000    2.6849606  0.023649394    28372.625    122873.96 -0.0018432616  0.009123674   0.00247545 
  271000    2.6759654  0.024191685    28372.625     123126.4 0.0014073596  0.011653563 0.0071204438 
  272000    2.6813789  0.023783273    28372.625    123312.47 -0.0024911256 0.0070002964 0.0053269924 
  273000    2.6634343  0.024918121    28372.625    123465.48 0.00029435801 0.0075537537 0.0028104724 
  274000    2.6851114   0.02379079    28372.625    123674.82 -0.0029058493 0.0080474256 0.0025810899 
  275000    2.6725716  0.024295198    28372.625    123944.42 -0.0021362945  0.010790633 0.00096349604 
  276000    2.6771686  0.024451511    28372.625    124212.19 -0.0041601437 0.0088341302 0.0017718325 
  277000    2.7001988  0.023932305    28372.625    124505.03 -0.0027545183 0.0089687829 -0.001233974 
  278000    2.6884986   0.02376416    28372.625    124657.65 -0.003752769 0.0086907775 -0.0021719742 
  279000    2.6806961  0.024859445    28372.625     124760.4 -0.0015737288 0.0073600771 -0.0021805219 
  280000    2.6708774   0.02551576    28372.625    124903.89 -0.013136169 0.0046263223 0.0001459098 
  281000    2.6761739   0.02531835    28372.625    125109.07 -0.0042332023 0.0029224714 -0.0024536881 
  282000    2.6935173  0.023570132    28372.625    125255.66 -0.0047674331 0.0011447182  0.001190472 
  283000    2.6847741  0.023456853    28372.625    125507.34 -0.0017181968 -0.0026404191 0.0024000063 
  284000    2.6744131  0.024509733    28372.625    125775.89 -0.002883193 -0.0030073906 -0.0020675868 
  285000    2.6719581  0.024065247    28372.625    126049.14 -0.0027730886 -0.0015506138 0.0016048687 
  286000    2.6831344  0.023444042    28372.625    126388.27 -0.0036177853 -0.0037645935 -0.0019307514 
  287000    2.6849135  0.023782909    28372.625    126737.19 -0.0026421425 -0.0039012064 -0.00080306245 
  288000    2.6694923   0.02438306    28372.625    127138.82 -0.0021682459 -0.0037674796 0.0026739908 
  289000     2.691796  0.023792476    28372.625     127627.3 0.00053623921 -0.0028796381 0.0034282652 
  290000    2.6785678  0.023648728    28372.625    128086.25 0.00019487013 -0.0048034116 0.0026358125 
  291000    2.6707766  0.025668172    28372.625    128561.54 0.0016697561 -0.0069316088 0.00037980656 
  292000     2.650495  0.025713394    28372.625    128956.21 -0.0021724284 -0.0023505517 -0.0038264864 
  293000    2.6894757   0.02383637    28372.625    129277.75 1.5919307e-05 -0.0047645067 0.0018905068 
  294000    2.6701129  0.025070952    28372.625    129573.92 -0.0061280645 -0.0051013406  0.002371552 
  295000    2.6835384  0.023991514    28372.625    129836.48 -0.0069304558 -0.0018331939 0.0024942025 
  296000    2.6761982  0.024012903    28372.625    130188.71 -0.0051839091 -0.0019891825 0.0013729336 
  297000    2.6848303  0.024224044    28372.625    130559.61 -0.006852165 0.00049428693 2.4507924e-05 
  298000     2.660127  0.025021993    28372.625    130952.34 -0.0043135404 -0.0059135131 0.0082783089 
  299000    2.6789667  0.023512544    28372.625    131398.21 -0.0057683992 0.0034064856 0.0038834246 
  300000    2.6813177   0.02395427    28372.625    131705.22 -0.0036921501 0.00097813094 -0.0022881681 
  301000    2.6785191  0.023986799    28372.625    132048.03 -0.0016370623 0.0045526015 -0.0012915487 
  302000    2.6885895  0.023795652    28372.625    132443.96 -0.0014125582 0.0033131632 -0.0016855507 
  303000    2.6922937  0.023841772    28372.625    132811.22 -0.0052855894 0.0049857569 -0.0022258425 
  304000    2.6838142  0.024424921    28372.625    133156.64 -0.0020777739 0.0068098511 0.00059114964 
  305000    2.6704481  0.025643627    28372.625    133519.64 0.0021769405 0.0077306237 5.8202761e-05 
  306000    2.6868353  0.023711396    28372.625    133901.37 -0.0010951331 0.0049713308 -0.0017652691 
  307000    2.6907148  0.023511777    28372.625    134385.34 -0.004186654 0.0086148142 -0.00087552932 
  308000    2.7010056  0.023850614    28372.625    134858.78 -0.0059410443 0.0090199701 0.0020317228 
  309000    2.6783586  0.024277158    28372.625    135311.89 -0.0091438302  0.006419575 0.0025023465 
  310000    2.6759652  0.024277845    28372.625    135718.21 -0.0085942578 0.0062587604 -0.00085522448 
  311000      2.69077  0.023707747    28372.625     136225.4 -0.007277948 0.0060021949 0.0015103635 
  312000    2.6864755  0.023750618    28372.625    136794.78 -0.0052471469 0.0057986969 0.00019610707 
  313000    2.6898277  0.023717944    28372.625    137358.68 -0.0051349414 0.0017934137 -0.00017174609 
  314000    2.6838321   0.02359914    28372.625    137953.86 -0.0039561358 0.0024915922 0.0015156216 
  315000    2.6812458  0.024415595    28372.625    138597.46 -0.0025376078 0.0066967074 -0.0022772204 
  316000    2.6780242  0.023846415    28372.625       139236 -0.0052752192 0.0048719068 0.0018367483 
  317000    2.6728109  0.023605905    28372.625    139857.94 -0.004107783 0.0019871465 0.0046528197 
  318000    2.6747303  0.023626541    28372.625    140484.04 -0.001260537 0.00063799295 0.0088882506 
  319000    2.6909788  0.024045041    28372.625    141061.46 -0.0035432058 0.0031804831 0.0062404204 
  320000    2.6904378  0.023676402    28372.625     141637.7 0.0040248282 0.0013010791 0.0014027278 
  321000    2.6821149  0.024181098    28372.625    142212.74 3.7003459e-05 0.0024058292 0.0016647821 
  322000    2.6996199  0.023713615    28372.625       142788 0.00095918364 -0.00040626059 -0.0023726722 
  323000     2.684313  0.024008165    28372.625    143343.76 0.00056593654 -0.0023950721 -0.001098657 
  324000    2.6900925  0.023433893    28372.625    143953.79 -0.00089154037 -0.0027683081 -0.00022579017 
  325000    2.7047998  0.023424612    28372.625    144484.03 -0.0018779463 -0.0028983521 -0.0016039516 
  326000    2.6862823  0.024919037    28372.625    144985.12 0.00062459266 -0.0045533839  0.000258887 
  327000    2.6882671  0.024229224    28372.625    145328.43 0.00075672325 -0.00046981854 -0.0018234322 
  328000    2.6899719  0.024816761    28372.625    145626.89 0.0041153065  0.002846681 -0.0067137429 
  329000    2.6735532  0.025765332    28372.625    145991.01 0.0069097474  0.002373521 -0.0015427544 
  330000    2.6950338  0.023819064    28372.625    146309.81 0.0043940266 -0.001999803 -0.0020980256 
  331000    2.6842545  0.024887241    28372.625    146651.04 0.0093657105 -0.0027030007 0.00029008031 
  332000    2.6851724  0.023806092    28372.625     146963.6 0.0053815546 -0.0025990458 0.00076323706 
  333000    2.6855676  0.023427341    28372.625    147329.83  0.003160527 -0.0036394648 0.0026143217 
  334000     2.683015  0.023658967    28372.625    147684.43 0.0050846118 -0.0024181097  0.002877965 
  335000     2.685696   0.02367076    28372.625    148053.49 0.0036250234 -0.0017687426 0.0050164387 
  336000      2.69467   0.02372553    28372.625    148531.24 0.0054340053 -0.0032820898 0.0011785353 
  337000    2.6680668  0.024718204    28372.625    149042.89 0.0043371979 -0.0053237344 0.0011234254 
  338000    2.6776747  0.023779473    28372.625    149577.06 0.0049672629 -0.0050004448 0.0050592128 
  339000    2.6938848   0.02364403    28372.625    150104.21 0.0049800675 -0.0027152246  0.004286926 
  340000    2.7066379  0.023977704    28372.625    150682.92 0.00088600814 -0.0024521254 0.0028576728 
  341000    2.6956842  0.024087499    28372.625     151305.2 -0.002843494 0.0013498679 0.0010487922 
  342000    2.6992477  0.024374034    28372.625    151933.94 -0.0033763463 0.0018662527 -0.0018135149 
  343000    2.6768316  0.024947513    28372.625    152485.69 -0.0044486486 -0.001509952 0.0012820941 
  344000    2.6752288  0.023845258    28372.625    152994.45 -0.003485962 -0.0010872295 -7.3253724e-05 
  345000    2.6945041  0.023842821    28372.625    153486.19 0.0018774756 0.0010984466  0.002835674 
  346000    2.6811736  0.024382349    28372.625    153981.02 0.0067809045 0.0016495145 0.0023259243 
  347000    2.6954917  0.023996504    28372.625    154459.64 0.0055671124 0.00021235921 0.0031436037 
  348000    2.6604175  0.025829738    28372.625    154871.08  0.025160317 -0.0016870062  0.016670758 
  349000    2.6939513  0.024115054    28372.625    155267.59 0.0087260703 -0.0059072945 0.0075059268 
  350000    2.6998231  0.023676109    28372.625    155660.25 0.0089425095 -0.0036735711 0.0080491698 
  351000    2.6882666  0.023977003    28372.625    156094.76 0.0078398329 -0.0026466689 0.0070873956 
  352000    2.6793452  0.023534125    28372.625    156521.24 0.0058242219 -0.0026082851 0.0071084648 
  353000    2.6878743  0.023776138    28372.625    156926.46 0.0016763789 -0.0010052866  0.007229984 
  354000    2.6919911  0.024074811    28372.625    157327.24 0.0042366799 0.00074464353 0.0054655199 
  355000    2.6846127  0.023654916    28372.625    157689.28 0.0012277036 -0.00040319499 0.0060749214 
  356000    2.6880108  0.023752841    28372.625     158081.8 0.0014887701 0.00078040417 0.0062401647 
  357000    2.6846027  0.024060442    28372.625    158515.97 0.0039851305 0.0016327797 0.0070264503 
  358000    2.6759459  0.023950096    28372.625    158962.13 -0.00038899886 0.0046165165 0.0087168488 
  359000    2.6791054  0.024919761    28372.625    159421.75  0.001821026 0.0021979904 0.0092397952 
  360000    2.6960973  0.023776849    28372.625    159828.58 -0.0034387693 0.0045883845 0.0093385222 
  361000    2.6875445  0.023785731    28372.625    160178.34 -0.0024142624 0.0024673344 0.0085554026 
  362000     2.680856  0.024018313    28372.625    160473.43 -0.0042467114 -0.0022315314 0.0066771508 
  363000    2.6958469  0.023793439    28372.625    160788.47 -0.0051965861 -0.0028346005 0.0045202025 
  364000    2.6917325   0.02388721    28372.625    161109.44 -0.0056029882 -0.0051679184 0.0066936287 
  365000    2.6903164  0.024731979    28372.625    161428.58 -0.00010120973 -0.0023572519 0.0054589696 
  366000     2.685169  0.023503812    28372.625    161816.32 -0.0031719647 -4.6831017e-05   0.00266029 
  367000    2.6856696  0.023550055    28372.625    162124.32 -0.0023458065 -0.00039362758 0.0033608038 
  368000    2.6871354   0.02351963    28372.625    162387.65 -0.0021654963 0.00065605002 -0.00075320356 
  369000    2.6846277  0.024170931    28372.625    162752.69 -0.0047183683    0.0023432 -0.0028715908 
  370000    2.6822844  0.024470934    28372.625     163036.7 -0.0032280593 0.0060692389 0.0037080177 
  371000    2.6872367  0.023620978    28372.625    163179.18 -0.0040021337 0.0056307217 0.0021946505 
  372000     2.693821  0.024050438    28372.625     163348.9 -0.0048082739 0.0053875916 0.0019802136 
  373000    2.6779953  0.024317345    28372.625    163542.23 -0.00057526159 0.0018805906 0.00030313438 
  374000    2.6878976  0.023513382    28372.625    163705.25 -0.00087658194  0.001917989 -0.00011095339 
  375000    2.6841277  0.023671222    28372.625    163952.55 0.0024556938 0.0037977687 -0.0023668806 
  376000    2.6870813  0.024029987    28372.625    164285.56 0.0019356062 0.0073726742 -0.0030186624 
  377000    2.6834786  0.023722615    28372.625    164573.35 0.0012285099  0.010075922 -0.0017055066 
  378000    2.6565821  0.025128657    28372.625    164789.48 0.00064980324  0.012636686 -0.0041514384 
  379000    2.6949782  0.023521352    28372.625    164987.07 0.0087617325 0.0086929367 -0.0022865244 
  380000    2.6928737  0.024920341    28372.625    165198.28 0.0085280102  0.008326235 0.00070741706 
  381000    2.6862571  0.023823198    28372.625    165343.85  0.010471268 0.0067127143 -0.0029752073 
  382000    2.6815108  0.024164858    28372.625    165628.39  0.010818184 0.0054701241 -0.0080203959 
  383000    2.6780137  0.023623819    28372.625    166093.62 0.0099603266 0.0064891595 -0.0036392812 
  384000    2.6763095  0.024201606    28372.625    166568.29  0.011772942 0.0058552687 -0.002000191 
  385000    2.6969901  0.023789758    28372.625    166898.52  0.009520697 0.0055191865 0.0029513919 
  386000    2.6845972  0.024258764    28372.625    167182.61 0.0067723571 0.0096765425 -0.00038898682 
  387000    2.6577106  0.025188811    28372.625    167495.65 0.0074306228 0.0045671247 0.0013180921 
  388000    2.6819847  0.024018014    28372.625    167875.41 0.0074257402 0.0028804431 0.0041869926 
  389000    2.6971414  0.024252201    28372.625    168268.53 0.0044715856 0.0036341097 0.0018782706 
  390000    2.6854352  0.023640386    28372.625    168612.24 0.0038602029 8.0172538e-05 0.0022003254 
  391000    2.6597018  0.024956377    28372.625    168947.17 0.0026347084 0.0046561861 0.00083374777 
  392000    2.6955813  0.023805874    28372.625    169301.75 0.0033327981  0.001601791 0.0024897523 
  393000    2.6788998  0.024940089    28372.625    169642.26 0.0039113102 -0.0012128169 0.0038396072 
  394000    2.6944828  0.024129741    28372.625    170073.62  0.003963451 0.00027859505 0.0040886885 
  395000    2.6818778  0.023672738    28372.625    170551.68 0.0032746974 -0.0010068255 0.0049592122 
  396000    2.6973393  0.023639892    28372.625    171109.38 0.0064329707 -0.00099293846 0.0032587574 
  397000    2.6899896  0.023813772    28372.625     171727.7 0.0074362434 -0.0026774455 0.0026574166 
  398000    2.6876688  0.023944074    28372.625    172270.18 0.0090865434 -0.00014268588 0.0019541635 
  399000     2.694918  0.023840791    28372.625    172806.96  0.008163284 -0.0023429885  0.001175575 
  400000    2.6851651  0.023700719    28372.625    173377.11 0.0079775433 -0.004837215 0.0045274986 
  401000    2.6840437  0.024503747    28372.625     173871.9 0.0040178608 -0.0060459326 0.0064143914 
  402000    2.6808992  0.025677334    28372.625    174289.87 0.0050952992 -0.0071500259 0.0068766477 
  403000    2.6834114   0.02472569    28372.625    174721.45 0.0076049129 -0.0084982092 0.0063276341 
  404000    2.6852212  0.023857534    28372.625       175177 0.0084843917 -0.0063598857 0.0075214962 
  405000     2.688198  0.024376598    28372.625    175750.02 0.0093533135 -0.0081521123 0.0084433218 
  406000    2.7008774   0.02443521    28372.625    176247.68 0.0051952157 -0.0075885253 0.0046816722 
  407000    2.6795429  0.023893751    28372.625    176844.13 0.0029490011 -0.0054607609 -0.00053430637 
  408000    2.6939752  0.023794554    28372.625     177448.1 0.0062575945 -0.0052129966  0.001526285 
  409000    2.6873201  0.024211049    28372.625    177938.72 0.0040238383 -0.0025720459 7.6393439e-05 
  410000    2.6786929  0.023944078    28372.625    178485.87 0.0015560409 -0.0014453447 -0.0023795935 
  411000    2.6868091  0.023494802    28372.625    179082.91 0.0033580793 -0.00059775866 -0.0035636743 
  412000    2.6706863  0.025322087    28372.625    179573.47 0.0013329398 -0.0012993547 0.00011579418 
  413000    2.6700766    0.0252419    28372.625       179906 -4.8701105e-05 0.0010037046 0.0018128548 
  414000    2.6869589  0.024201591    28372.625    180133.33 -0.005613107 0.0013563462 0.00062425697 
  415000    2.6748879  0.023562392    28372.625    180406.48 -0.0043073556 0.0059762765 0.0041071618 
  416000    2.6827723  0.024002348    28372.625    180694.98 -0.0062395035 0.0050332602 0.0040172696 
  417000    2.6916271  0.024139134    28372.625    180953.46 -0.0040582081 0.0035443746    0.0064545 
  418000    2.6862636  0.024641766    28372.625    181272.48 -0.0036259443 0.00091847528 0.0034184348 
  419000    2.6887018  0.023368167    28372.625    181565.24 -0.0026501603 0.00095186996 0.0022031881 
  420000    2.6863322  0.023883581    28372.625    181919.07 -0.0022450072 -0.0010178523 0.0011676313 
  421000    2.6886777  0.023630224    28372.625    182299.54 -0.00062079229 0.00052130869 0.00094784398 
  422000    2.6902886   0.02372808    28372.625    182708.85 0.0041117706 0.00048052998 0.0013514202 
  423000    2.6908416   0.02405212    28372.625    183088.36 0.00098535474 -0.00017421611 0.0015119502 
  424000    2.6792298  0.023708126    28372.625    183370.79 0.00084963244 -0.0043401758 -0.0015686217 
  425000    2.7035529  0.024251138    28372.625    183579.22 -0.0001831256 -0.0013617332 -0.00071208616 
  426000    2.6904293  0.024223139    28372.625    183823.26 0.0021843207 -0.003705659 0.00015178852 
  427000    2.6808888   0.02353337    28372.625    184009.15 0.00027225197 -0.0049891231 0.00055159098 
  428000     2.688746  0.023847931    28372.625    184196.75 0.00048985729 -0.007419746 -0.00043689546 
  429000    2.6872858  0.023744672    28372.625    184487.37 0.0023498566 -0.010377267 0.0046596312 
  430000    2.6690639  0.025695212    28372.625    184738.67 0.0011590637 -0.0096770115 0.0028324186 
  431000    2.6816676  0.023642364    28372.625    184935.88 -9.74797e-05 -0.0066496012 0.0007986173 
  432000    2.6987972   0.02384153    28372.625    185254.45 -0.0023088513 -0.0052354209 -0.0014002217 
  433000    2.6883792   0.02416415    28372.625    185605.92 -0.0032247729 -0.0053812037 -9.7562102e-05 
  434000    2.7032283  0.024082146    28372.625    185893.63 -0.0039390797 -0.0070133644 0.0019317367 
  435000    2.6983532   0.02358674    28372.625    186231.83 -0.0044510051 -0.0066216507 0.00017496105 
  436000     2.661049  0.025097896    28372.625    186687.29 -0.0049699872 -0.0087782973 -0.0034715022 
  437000    2.6791504  0.023769471    28372.625    187162.72 -0.0069234291 -0.0056124581 0.00063951401 
  438000    2.6836756  0.024074979    28372.625    187597.67 -0.0058768397 -0.00034106158 -0.0016917119 
  439000    2.6850719  0.023636226    28372.625     187947.9 -0.0058259206 -0.0040308513 0.00037609648 
  440000    2.6870815  0.023763079    28372.625     188305.4 -0.0074758905 -0.0061187704 0.0010767351 
  441000     2.696052  0.024883166    28372.625    188695.13 -0.009811801 -0.0071298889 -0.0014808174 
  442000    2.6842868  0.023912063    28372.625       189129 -0.004356327 -0.0075158071 0.0011507308 
  443000    2.6811789  0.023605261    28372.625       189565 -0.0045148255 -0.0071137292 0.0015005333 
  444000    2.6965356  0.023577874    28372.625    189858.65 -0.0036504503 -0.0075699373 0.0041842591 
  445000    2.6704483  0.025350366    28372.625    190132.12 -0.00092026328 -0.0093188161 0.0024868077 
  446000    2.6875591  0.023631736    28372.625    190445.01 -0.0029773037 -0.0097252452 0.0026040053 
  447000    2.6920528   0.02469778    28372.625    190624.89 -0.0042388232 -0.0088016826 0.00046583581 
  448000      2.70109  0.023736138    28372.625     190886.2 -0.0031954641 -0.0072862417 0.0046845519 
  449000    2.7023223  0.024520883    28372.625    191180.72 -0.0027847523 -0.0059236093 0.0091359249 
  450000    2.6701213  0.024876602    28372.625     191403.1 -0.0019195844 -0.005405217 0.0072051429 
  451000    2.6946266   0.02533333    28372.625    191643.01 0.0043027525 -0.0050738423 0.0041364762 
  452000    2.6901479  0.025076238    28372.625    191903.22 0.0043848813 -0.0071639884 0.0054050514 
  453000    2.6759042  0.024264311    28372.625    192243.69 0.0022091876 -0.00063029131  0.005896012 
  454000    2.6908612  0.023503141    28372.625    192565.05 0.00050311954 -0.0026055018 0.0048932269 
  455000    2.6877992  0.024737548    28372.625    192912.22  0.002383434 -0.00092456343  0.001038715 
  456000     2.708022  0.023405725    28372.625    193128.11 0.0020990893 -0.0026395612 0.0010367298 
  457000    2.6860404  0.024006747    28372.625    193298.19 0.0013739082 -0.0014683722 0.0021746502 
  458000    2.6802036   0.02516506    28372.625    193438.21 -0.00039137484 -0.00034506415 -0.00077237131 
  459000    2.6563767   0.02579605    28372.625    193571.57 -0.003428451 0.0092611308 -0.00054362993 
  460000    2.6829516  0.024131045    28372.625    193544.86 0.0011203108  0.002154113 0.0043415211 
  461000    2.6679066  0.025316566    28372.625    193503.33 -0.0011692157 0.00064035134 -0.0046774111 
  462000    2.6873915  0.023657253    28372.625    193496.39 0.0016864225 0.0048598972 -0.0050485597 
  463000    2.6913966   0.02388184    28372.625    193494.58 0.0040239199 0.0036850032 -0.0048135274 
  464000    2.6963354  0.023654826    28372.625    193524.37 -7.0368742e-05 0.0056996144 -0.0044284791 
  465000    2.6855657  0.023540477    28372.625    193688.16 -0.002172986 0.0045108583 -0.0016086952 
  466000    2.6928253  0.023710236    28372.625    193840.35 -0.0010132511 0.0037707375 0.00071788874 
  467000    2.6941872  0.024477722    28372.625     194073.2 0.00073985609  0.005445212 0.0014869755 
  468000    2.6817753   0.02431045    28372.625    194366.03 -0.00018489894 0.0053622656 0.0046833869 
  469000      2.68132  0.024108421    28372.625    194675.97 -0.0044753026  0.004902783 0.0012535494 
  470000    2.6952458  0.024277822    28372.625     195018.5 -0.0013627217 0.0039326956 -0.0011721898 
  471000    2.6721945  0.025814133    28372.625    195488.84 -0.003027652 0.0035517441 -0.00089154899 
  472000    2.6743221  0.024360789    28372.625     195986.6 -0.00080693757 0.0027422765 0.0028265094 
  473000     2.684359  0.023688454    28372.625    196484.74 -0.00091884301 0.0023075254 0.00053183111 
  474000    2.6841145  0.024362389    28372.625    196911.93 -0.0035828367 0.0084820935 0.0019812797 
  475000    2.6864915  0.024035702    28372.625    197275.26 -0.0029269514 0.0096750026 0.00022339965 
  476000      2.67428  0.023545314    28372.625    197650.27 -0.0056658324 0.0065042187 0.00014531667 
  477000    2.6829923  0.023905237    28372.625    197956.33 -0.0078921741 0.0011183237 -0.00024303853 
  478000    2.6651746   0.02573023    28372.625    198235.69 -0.0095019856  0.006169372 -0.0019020921 
  479000     2.680326  0.024375794    28372.625    198578.38 -0.0025182651 0.0029347995 -0.00064943073 
  480000    2.6831245   0.02370478    28372.625    198931.86 -0.0041997531 0.0010649738 -0.00026852207 
  481000     2.684802  0.024128809    28372.625    199344.94 -0.003685884 0.0020283575 0.0013679336 
  482000    2.6964081  0.023700108    28372.625    199972.98 -0.0045495013  0.004487557 0.0008649759 
  483000    2.6848608  0.024292408    28372.625    200528.42 -0.0038745451 0.0012233752 0.0021289787 
  484000    2.6748573  0.023890221    28372.625    200972.64 -0.0054008993  0.002329942 -0.00015100557 
  485000    2.6844666  0.024923975    28372.625    201424.01 -0.0050732797 0.0042280949 -0.00032930794 
  486000    2.6772005  0.024403386    28372.625    201893.06 -0.0037815496 0.0008345371 0.0047657937 
  487000    2.6846414  0.023588514    28372.625    202334.23 -0.0036179841 0.00072501699 0.00012208545 
  488000    2.6983632  0.024348272    28372.625     202734.3 -0.0054281992 0.0020138299 -0.00041844993 
  489000    2.6889215  0.023558853    28372.625    203120.56 -0.0049007915 -0.00013842495 -0.0022667274 
  490000    2.6853708  0.024172748    28372.625    203417.23 -0.0079714847 0.0013353894 0.0020165163 
  491000    2.6871497  0.024069567    28372.625    203656.49 -0.0059185824 0.0017467647 0.0021799055 
  492000    2.6837493  0.023966729    28372.625    203987.65 -0.0060602565 0.0010705355   0.00191989 
  493000    2.6876099  0.024290426    28372.625    204337.03 -0.0045910217 0.00074814013 0.0029374281 
  494000    2.6851803   0.02369914    28372.625    204707.06 -0.0033786995 -0.00093656384 -0.0013803792 
  495000     2.678489  0.023570207    28372.625    205062.81 -0.0057115536 0.00050878515 -0.0013214752 
  496000    2.6772084  0.024371579    28372.625    205440.71 -0.0059847688 0.0056820891 -0.001944609 
  497000    2.6856028  0.024177135    28372.625     205884.4 -0.0067729924 0.0051794516 -0.0071442001 
  498000     2.682959  0.024064132    28372.625    206339.18 -0.0089023699 0.0084905876 -0.003842464 
  499000    2.6823615  0.024355379    28372.625    206837.65 -0.0094383873 0.0090536769 -0.0045191896 
  500000    2.6667818   0.02460921    28372.625    207466.56 -0.005975065  0.016326047  -0.01069109 
  501000     2.691125  0.023806719    28372.625    208138.92 -0.011117746  0.010547834 -0.0034636325 
  502000    2.6859088   0.02374665    28372.625       208801 -0.013137846  0.013215929 -0.0046511113 
  503000    2.6740178  0.025610284    28372.625    209421.68 -0.016634655   0.01089851 -0.001186742 
  504000    2.7014979  0.025134572    28372.625    209993.63 -0.012897116  0.014283976 -0.0021972983 
  505000    2.6822728  0.024247137    28372.625    210386.09 -0.0094517785 0.0090287032 -0.0013866049 
  506000    2.6918068  0.024825221    28372.625    210689.51 -0.011131825  0.004413358 -0.0017516082 
  507000    2.6914581  0.024248154    28372.625     210876.2 -0.0067702207 0.0063817619 -0.0026578168 
  508000    2.6881749  0.024149279    28372.625    211208.94 -0.0031676718  0.006586279 -0.0037472778 
  509000    2.6932496  0.023537517    28372.625    211628.03 -0.0039778607 0.0044533348 -0.0037327782 
  510000    2.6824819  0.023861684    28372.625    211979.08 -0.0032471644 0.0049909942 -0.0033978703 
  511000    2.6785971  0.023614198    28372.625    212400.95 -0.001335307  0.001929606 -0.0045398055 
  512000    2.6855193  0.024481713    28372.625    212800.24 -0.0012557622 0.0058274331 -0.0031244452 
  513000    2.6863237    0.0236932    28372.625    213210.95 0.00020950539 0.0045912792 -0.0042395439 
  514000    2.6772809  0.023763996    28372.625    213597.18 -0.0007122628 0.0048314976 -0.0041236802 
  515000    2.6918249  0.023591199    28372.625    214012.18 0.0010549548 0.0047183227 -0.0043593659 
  516000    2.7005304  0.023752612    28372.625    214505.25 0.0013590694 0.0039433433 -0.0039066731 
  517000    2.6810707  0.023706003    28372.625    215037.95 0.0021692049 0.0034299224 -0.0017068431 
  518000    2.6727948  0.024586771    28372.625    215696.85 0.0015797865 0.0043767869 -0.002756018 
  519000    2.6866314  0.023902955    28372.625    216334.73 0.0027363346 0.0013000418 -0.0014183643 
  520000    2.6963912  0.024182507    28372.625     216829.2   0.00369889 0.0024921865 0.0011119455 
  521000    2.6914256  0.024001156    28372.625    217233.99 0.0050204879 0.0032785217 0.0028571516 
  522000    2.7098229  0.024461126    28372.625    217732.41 0.0033760509 0.0032564368 0.0020950905 
  523000    2.6923674  0.024475364    28372.625    218216.69 0.0022041131 0.0011104499 0.0010747364 
  524000    2.6762862  0.023866958    28372.625    218631.85 0.0080828536 0.00072774321 -0.0036217589 
  525000    2.6796203  0.023886847    28372.625    219010.62 0.0029010736 0.0027687941 -0.0044277318 
  526000     2.684364  0.023746824    28372.625    219480.26 0.0031637386 0.0023989094 -0.0037893947 
  527000    2.6935023  0.023580744    28372.625    219969.94 0.0028848218 0.0027560009 -0.0035941494 
  528000    2.6825156  0.023614657    28372.625    220544.44 0.0053091819 0.0017850646 -0.0050115289 
  529000    2.6866182  0.023785042    28372.625    221232.39 0.0048778728 0.0022309182 -0.0082333736 
  530000    2.6809315  0.024541492    28372.625    222057.53 0.0078188457 0.0062482887 -0.0039729352 
  531000    2.6723135  0.024092251    28372.625    222675.19 0.0046468648 0.0031592878 -0.002678345 
  532000    2.6956855  0.023945639    28372.625    223191.09 0.0031952575 0.0013806145 -0.00076538778 
  533000    2.6764032  0.024522641    28372.625    223725.79 0.0095001792 -0.0035034274 0.0042554333 
  534000    2.6746511  0.023575586    28372.625    224331.73 0.0062660363 0.0011849056  0.001820616 
  535000    2.6887807  0.024663254    28372.625    225062.09 0.0077599818 0.00021778947 0.0016624931 
  536000    2.6883207  0.024556574    28372.625    225976.14   0.00341102 -0.0036520442 0.0044874038 
  537000    2.6921318  0.024136282    28372.625    226818.49 0.0038538278 -0.0039134719 0.0042085917 
  538000     2.687191  0.024094069    28372.625    227658.47 0.0073367811 -0.0022060845 0.0058145578 
  539000    2.6851137  0.023970678    28372.625    228415.27 0.0079338778 -0.0020228714 0.0091730488 
  540000    2.6735225  0.024657696    28372.625    229038.78   0.01031466 -0.00076158056 0.0094810354 
  541000    2.6841356  0.023519615    28372.625    229660.51 0.0071596675 -0.0025679588 0.0048365716 
  542000    2.6805346  0.023790634    28372.625     230170.8 0.0072745853 -0.0049421095 0.0057099515 
  543000    2.6930196  0.023745232    28372.625    230575.82 0.0099140753 -0.0028648063 0.0053316738 
  544000    2.6799338  0.023912864    28372.625    231027.79  0.010349542 -0.0014399399  0.005059659 
  545000    2.6765361  0.023931429    28372.625    231472.43 0.0084188782 -0.0031586014 0.0061968558 
  546000     2.681012  0.023804084    28372.625    231943.81  0.008957902 -0.0013906732 0.0069768577 
  547000    2.6856232  0.023821274    28372.625    232378.93 0.0066970318 0.00063299005 0.0049074883 
  548000    2.7007348  0.024062987    28372.625    232874.91 0.0059037324 -0.00052446118 0.0022352056 
  549000    2.6903602  0.023888091    28372.625    233341.14 0.0041725575 -0.00076488478 0.0054717966 
  550000    2.6913679  0.023440696    28372.625    233797.82 0.0032643049 0.0015880516 0.0042663677 
  551000    2.6679524  0.025469933    28372.625    234268.24 -8.4763484e-06 -0.0016537618 0.0034999989 
  552000    2.6667146   0.02476176    28372.625    234870.08 0.0021518715 -0.00043200934 0.0032707772 
  553000    2.6859783  0.024588861    28372.625    235503.71 0.0010254982 -0.002932808 0.0060100559 
  554000    2.6914401  0.024178351    28372.625    236036.57 0.0014506244 -0.0022847693 0.0058472802 
  555000    2.6902708  0.023540217    28372.625     236705.6 0.0043238787 -0.0049890817 0.0027853944 
  556000     2.689083   0.02403191    28372.625    237378.87 0.0029044265 -0.0037296249 0.00049144669 
  557000    2.7020356   0.02434864    28372.625    238004.95 0.0053467783 -0.0023827357 0.0019749769 
  558000    2.6803088  0.024055812    28372.625    238618.23 0.0028830565 -8.4851251e-05 0.0039205369 
  559000    2.6879391  0.023722945    28372.625    239250.11  0.003215732 0.00037256861 0.0046252797 
  560000    2.6713543  0.024869043    28372.625    239772.46 0.00047091796  0.003276151 0.0036825764 
  561000    2.6858854  0.023937616    28372.625    240069.34 0.0030163114 0.0034647066 0.0020929289 
  562000    2.6707387  0.024167366    28372.625    240410.85 0.0050042845 0.00087034767  0.004303408 
  563000    2.6821809  0.023789235    28372.625    240793.06  0.002886442  0.005106272 0.0029326576 
  564000    2.6712779  0.025009677    28372.625    241296.34 0.0048744324 0.0035538801 -0.00031716704 
  565000    2.6961775  0.023991917    28372.625    241799.03 0.0040964001 0.0032337984 0.00016987515 
  566000    2.7116916  0.023612534    28372.625     242296.1  0.003131321 0.0021534782 -0.00037167443 
  567000    2.6785671   0.02424611    28372.625    242692.85  0.005615175 0.0017974275 -0.0033570362 
  568000    2.6815419  0.024516604    28372.625    243095.89 0.0010010109 -0.0003849926  -0.00243223 
  569000    2.6893356  0.024693563    28372.625    243488.55 -0.00027230673 0.0012005644 0.0014790553 
  570000    2.6904548  0.023799256    28372.625    243884.22 0.0011303983 0.0019767478 -0.0014860094 
  571000    2.6815418  0.023950014    28372.625    244227.84  0.001409673 0.0023147186 -0.00079076529 
  572000    2.7063644  0.023846387    28372.625    244547.04 0.0003555416 0.0017408321 -0.0029397868 
  573000    2.6855752  0.024381971    28372.625       244805 0.0079857406 -0.00081798081 0.0017024988 
  574000    2.6705471   0.02433693    28372.625    245173.68 0.0028187741 -0.002641547 -0.0018012099 
  575000     2.684509  0.023552143    28372.625    245691.28 0.0047697679 -0.00049152314 -0.0016195377 
  576000    2.6922699  0.023553189    28372.625    246248.07 0.0024254111 -0.0029616891 -0.00018046649 
  577000    2.6911527  0.023530918    28372.625    246820.14 0.0020306341 -0.0022081714 -0.0024737707 
  578000    2.6829362  0.024025263    28372.625    247389.54 0.0015882471 -0.00079416367 -0.0003689632 
  579000    2.6888873  0.023818285    28372.625    247881.49 0.0044209449 0.00097040013 -0.00062561247 
  580000    2.6942485  0.024013457    28372.625    248298.22 0.0054129065 0.0004202705 -0.0010275101 
  581000    2.6855225  0.023964014    28372.625    248594.25 0.0084749676 -0.0011136873 -0.0028987999 
  582000    2.6766266  0.023957096    28372.625    248749.38 0.0083223113 -0.0023196482 -0.0057295894 
  583000    2.6818112  0.023798383    28372.625    248822.88 0.0041430486 -0.00037105149 -0.0018219783 
  584000    2.6709538  0.024859626    28372.625    248984.34 0.0031684643 -0.0012326215 -0.0051867683 
  585000     2.682882  0.024573976    28372.625    249163.81 0.0056191667 -0.004694986 -0.0024289885 
  586000    2.6950942  0.024149182    28372.625    249356.08 0.0069631525 -0.0020575435 -0.0019821521 
  587000    2.6890183  0.023832876    28372.625    249622.95 0.0058990928 -0.00080616408 -0.0038867904 
  588000    2.6837239  0.023631884    28372.625    249926.36 0.0061655313 -0.0033963201 -0.0022501031 
  589000    2.6840168  0.023916866    28372.625    250205.15 0.0046077389 -0.0058586775 0.00057001747 
  590000    2.6745447  0.024100117    28372.625    250397.72 -0.00060594876 -0.0038655783 0.0027181778 
  591000    2.6785466  0.023828206    28372.625    250596.19 -7.6102035e-05 -0.0024561521 -3.3140753e-05 
  592000    2.6969642  0.024542186    28372.625    250804.51  0.004134163 -0.0046562709  0.001915006 
  593000    2.6802752  0.023747157    28372.625    250974.51 0.0017809577 -0.0061301037 0.0028834981 
  594000    2.6726782  0.024879255    28372.625    251130.41 0.00091805842 -0.0030891284 0.0023891366 
  595000    2.6696096  0.024441856    28372.625    251450.42 -0.00055890707  -0.00615867 0.0033111592 
  596000    2.6750772  0.023991688    28372.625    251973.41 0.0045692062 -0.0011662809 0.0015060065 
  597000    2.6937901  0.024115239    28372.625    252630.64 -0.0018992689 0.00068820561 0.0033320463 
  598000    2.6815294  0.024020325    28372.625    253376.21 0.0025803284 -0.0013127353 0.0045281517 
  599000    2.6839174  0.024401769    28372.625    254206.03 0.0046211974 -0.0053521241 0.0032619871 
  600000    2.6879927  0.024077118    28372.625    255083.42 0.00059787093 0.0026750297 0.0026340638 
  601000     2.680284   0.02459463    28372.625    256060.69 0.0026736348  0.008015523 -4.8785587e-06 
  602000     2.703241  0.023996938    28372.625    257212.87 0.0035329297  0.001386781 -0.0011605417 
  603000    2.7022454  0.024050696    28372.625    258399.88 0.0029706907 -0.00030798011 -0.002122931 
  604000    2.6961527  0.023921266    28372.625     259521.5 0.0014308203 0.0017224456 -0.004837674 
  605000    2.6774165  0.024022233    28372.625    260630.95 0.0015936082 0.0028404623 -0.0025986134 
  606000     2.694788  0.023960425    28372.625    261703.99  0.003763159 0.0024653089 -0.0036417159 
  607000    2.6730717   0.02534886    28372.625     262667.3 0.0077229205 -0.0046284314 -0.0041120045 
  608000    2.6901188  0.023552744    28372.625    263545.27 0.0080802358 -0.0032010185 0.00016559459 
  609000    2.6969011  0.024672371    28372.625    264288.14 0.0071806183 -0.0019289253 -0.0020894482 
  610000    2.6676384  0.025529424    28372.625    264988.31 0.0092284499 0.0018139728 -0.00051296414 
  611000    2.6898193   0.02418605    28372.625    265666.85 0.0063904328 -0.0025548895 -0.0035746439 
  612000     2.677572  0.025461795    28372.625    266369.16 0.0050163786 -0.00067229367 -0.00090359225 
  613000    2.6897069  0.024103332    28372.625    266954.45 0.0063456723 -0.00092157872 -0.0022758328 
  614000    2.6847674  0.024215956    28372.625    267557.21 0.0057270029 0.0019133702 -0.003238065 
  615000    2.6932486  0.023979439    28372.625     268168.7 0.0062108173 -0.00030273579 -0.0052263735 
  616000     2.683256  0.024348624    28372.625    268677.18 0.00030542976 -0.0030622185 0.0002387875 
  617000    2.6860634  0.025316179    28372.625     269159.7  0.002899803 0.0024965587 -0.00052685151 
  618000    2.6939685  0.023874485    28372.625    269559.91 0.0011489838 -0.0012098513 -0.00059085223 
  619000    2.6874427  0.023663695    28372.625       269908 0.0034685621 -0.00016622762 0.0020876988 
  620000    2.6942635  0.024244743    28372.625    270396.71 0.0052644365 -0.00081857165 0.0038177394 
  621000    2.6885216  0.023769365    28372.625    270873.45 6.5788043e-05 0.0034389316  0.006198762 
  622000    2.6850171  0.024640757    28372.625    271306.18 0.0017848942 -0.0015353328 0.0071387664 
  623000    2.7004087  0.023769494    28372.625    271450.13 -0.00037045162 6.2956624e-05 0.0037538235 
  624000    2.6863326  0.023853468    28372.625    271626.68 -1.0535529e-05 -0.0010592734 0.0041700282 
  625000    2.6921028  0.024219545    28372.625    271942.37 -0.0025580631 0.0025934799 0.0052464898 
  626000    2.6938187  0.024347225    28372.625     272538.7 -0.0014484683 0.0026125303 0.0031505052 
  627000     2.688818  0.023536629    28372.625    273069.36 -0.0035069946  0.001697862 0.0010961297 
  628000    2.6878841  0.023652978    28372.625    273664.04 -0.0036469602 9.3815143e-05 0.0034262954 
  629000    2.6968532  0.023458117    28372.625    274322.26 -0.0037813042 0.0019317742 0.0015191429 
  630000    2.6861053  0.023559395    28372.625    274988.16 -0.0029598376 0.0027141667 0.0016463038 
  631000    2.6818969  0.024315351    28372.625    275568.84 -0.0022065879 0.0036047746 0.0013447359 
  632000    2.6975699  0.023654313    28372.625    276192.39 0.00089903698 0.0041858405 -0.00054775121 
  633000    2.6863084  0.024666394    28372.625    276736.49 -0.0018347962 0.0027704239 0.0035262872 
  634000    2.6971332  0.024774623    28372.625    277206.12 -5.5510607e-06 -0.0014148489 0.0052495598 
  635000    2.6850417  0.023788122    28372.625    277541.98 -0.00061445586  0.001850613 0.0048206982 
  636000    2.6716716  0.024261337    28372.625    277854.63 0.0019901999 0.0045813651  0.006963165 
  637000    2.6925887  0.023858354    28372.625    278290.26 0.0004146505 0.0019372782 0.0035133607 
  638000    2.6789315  0.023555857    28372.625     278918.1 -0.00038507579 0.0020961293  0.006049911 
  639000    2.6930964  0.023865275    28372.625     279612.4 0.0004935009 -0.00090846329 0.0083431204 
  640000      2.68564  0.024449071    28372.625     280271.2 0.0012100854 -0.00028699398  0.004534512 
  641000    2.6955928   0.02432183    28372.625    280907.78 -0.0006586123 -0.0025601972 0.0059229379 
  642000    2.6798256  0.024837528    28372.625    281399.21 0.0032372137 0.00093834009 0.0054396846 
  643000     2.682107  0.024162293    28372.625    281833.59 0.0075453982 -0.0053228471 0.0062111088 
  644000    2.6757167  0.024354506    28372.625    282340.87 -0.00027674086 0.0014531764 0.0060321639 
  645000    2.6850975  0.023976301    28372.625     282838.7 0.0039434532 0.0028139089 0.0055545695 
  646000    2.6980142  0.023650235    28372.625    283287.58 0.0031873934 0.0020041243  0.007746386 
  647000    2.6809896  0.024322005    28372.625     283698.3 0.0026917302 0.00044978401  0.010219023 
  648000    2.6820703  0.024146173    28372.625    284172.13 0.0027607375 0.0048282917 0.0088536184 
  649000    2.6805174  0.024049665    28372.625    284726.23 0.0012612465  0.004179752 0.0040729028 
  650000     2.677183  0.024398593    28372.625    285313.75 0.0050416528 0.00088810558 0.0079304184 
  651000    2.6713116  0.024533342    28372.625    285947.01 -0.0011078177 0.0021768953 0.0045066489 
  652000    2.6835396  0.023977232    28372.625    286610.94 -0.0011503145 0.0037673442 0.0070075198 
  653000    2.6506644    0.0252877    28372.625    287188.18 -0.0057592306 0.0063693508 0.0044823687 
  654000     2.693989  0.023801051    28372.625    287712.95 -0.0023579974 0.0027913456 0.0057322233 
  655000    2.6980125  0.023854578    28372.625    288160.67 0.0016542234 -0.00096020154 0.0039784665 
  656000    2.6897471  0.023821468    28372.625     288504.8 -0.00027631939 -0.0022815242 0.0031299617 
  657000    2.6860308  0.024581653    28372.625    288871.06 0.0021019341 0.0026791027 0.00027678698 
  658000    2.6863474  0.023505839    28372.625    289116.64 0.0017763267 0.0026502359 -0.0014503516 
  659000    2.6829853   0.02431515    28372.625    289261.33 0.00031409505 0.0099864417 -0.0037605303 
  660000    2.6932893  0.025356176    28372.625    289508.21 -0.00047485007 0.0092832503 -0.00090523338 
  661000    2.6866129  0.023911158    28372.625    289691.41 0.0010631931 0.0088683382 0.0020242684 
  662000     2.678485  0.024871436    28372.625    289954.83 0.0018331489 0.0056206037 0.0016875959 
  663000     2.694048  0.024830241    28372.625    290244.49 0.0044328262  0.010021755 0.0025483462 
  664000    2.6854122  0.024935747    28372.625    290613.74 0.0022628018 0.0060176109 0.0028955648 
  665000    2.7047887  0.023895549    28372.625    290991.55 -0.00012408962 0.0016660668 0.0025282787 
  666000    2.7044348  0.023806829    28372.625    291353.96 0.00025670779 -0.00022101166 0.0027033273 
  667000    2.6874301  0.023893589    28372.625    291693.53 0.0018093034  -0.00147382 0.0064488669 
  668000    2.6917656  0.023810543    28372.625    292090.57 0.0017490494 -0.0024197379  0.007586605 
  669000    2.7001728  0.023556692    28372.625    292505.64 -1.4746193e-06 -0.0014609589 0.0052057711 
  670000    2.7037723  0.023651575    28372.625    292899.45 0.00039748268 -0.0037935303 0.0058576404 
  671000    2.6854254  0.024695361    28372.625    293157.88 -0.00059991887 -0.0014229175 0.0093086376 
  672000    2.6977732  0.023754426    28372.625    293412.75 0.0012790797 -0.0017998848 0.0079394051 
  673000    2.6811692  0.023841973    28372.625    293628.74 -0.00019905673 -0.0028690266 0.0076224193 
  674000    2.6830548  0.023700298    28372.625    293889.19 0.00028047025 -0.0052024572 0.0092781942 
  675000    2.6915478  0.023614383    28372.625    294256.96 -0.00022285723 -0.0068024204   0.01110454 
  676000    2.7047705  0.023703716    28372.625    294696.98 -0.00020033211 -0.0049877069 0.0090912719 
  677000    2.6849477  0.023485711    28372.625    294997.64 -0.0044542892 -0.0049846615 0.0040959758 
  678000    2.6754111  0.023941893    28372.625    295385.13 -0.0021871937 -0.0047380661 0.0020662611 
  679000    2.6759393   0.02371805    28372.625    295833.07 -0.003145722 -0.0031002419 0.0025460474 
  680000    2.6826403    0.0236423    28372.625    296275.94 -0.00099936114 0.0013628464 0.0039008895 
  681000     2.677621  0.024221681    28372.625    296690.81 -0.00039534349 0.0024942913 0.0030274946 
  682000    2.6775642  0.023538832    28372.625    297148.04 0.0027430512  0.003885405 0.0024261525 
  683000    2.6776679  0.025059185    28372.625    297538.47   0.00137124 -0.0054892463 0.00068140766 
  684000    2.6698115  0.024898306    28372.625    297876.34 0.0022601608 -0.0025677209 0.00036423661 
  685000    2.6871597  0.023550436    28372.625    298234.21 -0.00019192083 -0.0013517752 0.0038296148 
  686000    2.6784094  0.024817324    28372.625    298481.23 -0.00094477359 -0.0047701316 0.0036016997 
  687000    2.6873838  0.023932468    28372.625     298627.3 -6.8518134e-05 -0.0040483598 0.00087631677 
  688000    2.6797834  0.024630984    28372.625    298678.91 -0.0016944325 -0.0098387895 0.00078072088 
  689000    2.6920748  0.024277082    28372.625    298733.71 -0.00054703223 -0.0066367246 0.00022587775 
  690000    2.6817135  0.023676769    28372.625    298836.31 0.00067671714 -0.005050672 -0.00096737938 
  691000    2.6884169  0.024153556    28372.625    298968.45 -0.0010237632 -0.0028811164 -0.0014069458 
  692000    2.6915566  0.023657523    28372.625    299059.81 -0.0036749689 -0.0038491265 -0.0028131805 
  693000    2.6785918    0.0242761    28372.625    299284.06 -0.0016909991 -0.0067573388 -0.0011932811 
  694000    2.6847584  0.023947095    28372.625    299602.29 -0.0027870553 -0.0063789866 0.00056967284 
  695000    2.6863995   0.02408577    28372.625    299900.64 -0.0056371538 -0.0070500437 0.0010288441 
  696000    2.6742052  0.024969368    28372.625    300247.56 -0.0048123529 -0.004099311 -0.0010149226 
  697000    2.6822968  0.023430475    28372.625    300576.01 -0.0025909372 -0.0071868057  0.001483295 
  698000     2.679002  0.024050892    28372.625    300996.54 -0.00044895396 -0.0047896824 9.8624888e-05 
  699000    2.6886157  0.024463975    28372.625    301513.42 -0.0044067471 -0.003474846 0.00023947069 
  700000    2.6841105  0.023892879    28372.625    301976.12 -0.0027060539 -0.0047731383 0.00015228732 
  701000    2.6877838  0.023787831    28372.625    302390.24 -0.0014796818 -0.0016537027 -0.0010367101 
  702000     2.692097  0.024161843    28372.625    302834.26 -0.00099441031 0.00093806032 6.2139841e-05 
  703000    2.6820925  0.024585319    28372.625     303471.4 -0.00094311834 0.00063303825 -0.0013202868 
  704000    2.6785169  0.023852831    28372.625    304154.85 0.0019284071 0.00016794084 -0.00017298438 
  705000    2.6798685  0.024703073    28372.625    305024.59 0.0012410012 -0.00058079016 -0.0047872927 
  706000    2.6896461  0.024658804    28372.625    305870.04 0.00039582184 -0.00034917288 0.0026978545 
  707000    2.6872605  0.023416785    28372.625     306694.4 0.00035302913 -0.0024342868 0.0052712899 
  708000    2.6689765  0.024354407    28372.625    307558.82 -0.0019670991 -0.0034398377 0.0071639542 
  709000    2.6750265  0.025468239    28372.625    308450.28 0.0020155124 -0.0019928748 0.0083529046 
  710000    2.6907128  0.024512342    28372.625    309330.54 0.00049617896 -0.0040130278 0.0029268167 
  711000    2.6964573  0.023563545    28372.625    310192.55 -0.00090741754 -0.0022253235 0.0058527287 
  712000    2.6896687  0.023719528    28372.625     310992.9 -0.0019314247 -0.0029467939 0.0058430002 
  713000    2.6872928  0.024189177    28372.625    311696.96 0.0021809068 0.00033052939 0.0077809467 
  714000    2.6935417  0.024519891    28372.625    312455.75 -0.0023944599 -0.0014697519   0.00661249 
  715000    2.6806946  0.024804934    28372.625    313186.87 0.0022455983 -0.00035187086 0.0076120423 
  716000    2.6865892  0.024001764    28372.625    313910.91 -0.00083942286 -0.0021150974 0.0060234137 
  717000    2.6837958  0.024057248    28372.625    314559.46 0.0011161497 -0.0035651782 0.00065258667 
  718000    2.6813624  0.024131918    28372.625    315028.69 4.5143211e-05 -0.0011482497 0.0026818763 
  719000    2.6801088  0.024970935    28372.625    315270.55 -0.0037094694 -0.00022245156 -0.00095189315 
  720000    2.6661027  0.025127288    28372.625    315576.52 -0.006551321 -0.010321372 -0.00031623683 
  721000     2.687233   0.02409262    28372.625    315768.66 -0.0020710073 -0.0074497624 0.0020177259 
  722000    2.6913952  0.024089254    28372.625    315959.02 -0.00097698652 -0.007303534 0.0011087782 
  723000    2.6943495  0.024609086    28372.625     316163.9 -0.0034418277 -0.0041303425 0.00053330765 
  724000    2.6780089  0.024173628    28372.625    316354.68 -0.0051687698 -0.0037999289 0.00049911844 
  725000    2.6773089  0.024110808    28372.625     316647.8 -0.0063367732 -0.0023790621 -0.0019563737 
  726000    2.6762891   0.02384201    28372.625    316977.55 -0.0028225878 0.00037479764 -0.00040634816 
  727000    2.6738932  0.024440211    28372.625    317438.48 -0.005083729 0.0022440357 -0.0016630805 
  728000    2.6668634  0.024880371    28372.625    318037.77 -0.010981316 0.0037572795 0.0068020424 
  729000    2.6823949   0.02417086    28372.625    318615.63 -0.0086528892 -0.0045699318 -0.00029516817 
  730000    2.6904149  0.024165337    28372.625    319192.01 -0.0072316044 -0.0014924715 -0.0018888247 
  731000    2.6712888   0.02523949    28372.625    319720.69 -0.0035431414 -0.0053234013 -0.0045040506 
  732000    2.6909561   0.02387231    28372.625     320145.7 -0.0060949407 -0.0080551741 -0.0020248658 
  733000    2.7001625  0.024190738    28372.625    320581.71 -0.0036214521 -0.0041541214 -0.0061175161 
  734000    2.6893885  0.024219879    28372.625    321166.96 -0.001390634 -0.0058826629 -0.0064393005 
  735000    2.6853691   0.02428542    28372.625    321788.91 -0.001272461 0.0030206698 -0.0034548847 
  736000    2.7026122  0.024029206    28372.625     322425.5 -0.00058088639 0.0040109478 -0.0020492303 
  737000    2.6962754  0.023775264    28372.625    323041.92 0.00027449886 0.0070922052 0.0050275054 
  738000    2.6831035  0.024165085    28372.625    323563.22 -0.0028260585 0.0041391747 0.0032322937 
  739000    2.6942392   0.02346605    28372.625    324190.63 -0.0022354085 0.0074064443 0.0020945588 
  740000    2.6848622  0.023539634    28372.625    324771.12 -0.0016226269 0.0075365383 -0.0011870887 
  741000    2.6914863  0.024060411    28372.625     325319.5 -0.0058160961 0.0082860018 -0.00099536811 
  742000    2.6957608  0.023514365    28372.625    325849.08 -0.0045183364 0.0090368542 -0.0016803586 
  743000    2.6813667  0.023557914    28372.625    326479.68 -0.0063077306  0.010032324 -0.0022586796 
  744000    2.6902553  0.023702438    28372.625    327017.69 -0.006647516   0.01012525 -0.0027195179 
  745000    2.6883474  0.024010071    28372.625    327411.01 -0.0098972165  0.007784874 -0.0032786671 
  746000    2.6645851  0.026133278    28372.625    327769.98 -0.0083606256 0.0031208744 -0.0035600387 
  747000    2.6786937  0.023625824    28372.625    328059.78 -0.0063879495 0.0072791888 -0.0027782879 
  748000    2.6871351  0.024474737    28372.625     328270.4 -0.006514342 0.0041893891 -0.0031921141 
  749000    2.6833715  0.023915262    28372.625    328531.66 -0.0059067484 0.0061696416 0.0012935732 
  750000    2.6882659  0.023468488    28372.625    328909.52 -0.0047225494 0.0064246086 0.0016264579 
  751000    2.6858261  0.023945193    28372.625    329321.63 -0.0055797246 0.0075483456 0.0055548194 
  752000    2.6803419  0.023435036    28372.625    329734.55 -0.0005922639 0.0029262923 0.0041291865 
  753000    2.6905161  0.023831439    28372.625    330122.49 -0.0050111038 0.0030775436 0.0034757775 
  754000     2.681793  0.025059903    28372.625    330454.62 -0.0041162901 0.0046756059 0.0017120863 
  755000    2.6830212  0.023565021    28372.625    330794.32 -0.0076438429 0.0018700107 0.00057846055 
  756000    2.6979006  0.023832445    28372.625    331118.85 -0.003927161 -0.0045699575 -0.0011764727 
  757000     2.696498  0.023742138    28372.625    331618.29 -0.0020989528 -0.0022912819 -0.00041965016 
  758000      2.68205  0.024200858    28372.625    332090.84 -0.0019366882 -0.0010100186 0.00055826641 
  759000    2.6837699  0.024238164    28372.625    332485.46 0.00022994872 -0.0017712432 0.00066126963 
  760000    2.6896604  0.024192385    28372.625    332920.15 0.0019965711 -0.0028731457 0.0037155993 
  761000    2.6895755  0.024620531    28372.625    333486.26 -0.0023784855 -0.0010871872   0.00218257 
  762000    2.6772544  0.025849451    28372.625    334022.47 -0.0027757175 0.0048159025  0.002372345 
  763000    2.6924904  0.023442621    28372.625    334577.28 -0.0012780271 0.00031376609 0.0020713989 
  764000    2.6915767  0.023814786    28372.625    335173.35 0.0016584961 -0.00014594862 0.0041397142 
[...]
 1843000    2.6975935  0.023605322    28372.625    809390.76 0.0044486678 0.0033491404 0.00032248258 
 1844000    2.6813225  0.024024772    28372.625    809927.34 0.0038687908 0.0036332582 -0.00023597415 
 1845000    2.6795779   0.02444599    28372.625    810594.24 0.00044744423 0.0041814302 0.0021063363 
 1846000    2.6856592  0.024833132    28372.625    811083.56 0.0030847984 0.0040958912 0.0016013248 
 1847000    2.6834664  0.023557509    28372.625     811573.2 0.0038570988 0.0058814002 0.00040321724 
 1848000    2.6821417  0.025885466    28372.625    812039.63 0.0046398777  0.011666524 0.00065055323 
 1849000     2.695713   0.02397244    28372.625     812788.6 0.0047521297 0.0085985067 -0.0012089927 
 1850000    2.6917027  0.025061357    28372.625    813590.56 0.0013518792 0.0082238453 -0.0053111524 
 1851000     2.679456  0.024153359    28372.625    814384.95 0.0021606841  0.009341153 -0.0048143657 
 1852000    2.6988995  0.024032569    28372.625    815063.14 0.0021428137 0.0087263559  -0.00330784 
 1853000     2.683945   0.02497067    28372.625    815716.18 -0.001263442 0.0079595208 -0.00069693772 
 1854000    2.6785292  0.023577021    28372.625    816519.33 -0.0031995786 0.0034140529 -0.002366839 
 1855000    2.6922046  0.023466292    28372.625    817310.33 -0.0046444337 0.0017546565 -0.0033926518 
 1856000    2.6800566  0.024010788    28372.625    817972.96 -0.0035233322 0.0025788586 -0.0037548108 
 1857000    2.6787323  0.024469737    28372.625    818452.66 -0.00039042558 0.0011478543 0.0023459302 
 1858000    2.6710207  0.023664253    28372.625    818739.35 -0.00060981022 -0.0024271153 0.0028004558 
 1859000    2.6663282  0.025289196    28372.625    819044.28 -0.00081272661 0.0027222581 -0.002145635 
 1860000    2.6819859  0.024125153    28372.625    819222.08 0.00079302281 0.0031617412 0.0032299429 
 1861000    2.6828868  0.023744431    28372.625    819253.13 0.0020650612 -0.00088674937 0.0016994686 
 1862000    2.6746489  0.024506569    28372.625    819287.55 0.0023612137 0.0019153508 0.0010695273 
 1863000    2.7010489  0.024171663    28372.625     819363.8 0.0028150962 -0.0052233803 -0.0001940608 
 1864000    2.6926598  0.023991779    28372.625    819297.52 0.0028020101 -0.0029487917 0.0018715032 
 1865000    2.6717065  0.024907785    28372.625    819282.71 -0.0018235541 -0.0037322576 0.0047731853 
 1866000    2.6817639  0.023732817    28372.625    819418.53 0.0027871868 -0.0022187317 0.0025783566 
 1867000     2.674713   0.02428086    28372.625    819546.11 0.0047918337 -0.0019361502 0.0037603082 
 1868000    2.6604775  0.024915825    28372.625    819788.25 0.0056102978 -0.0022782446 0.0024862596 
 1869000    2.6905721  0.023808534    28372.625    820318.73 0.0050883499 -0.00086550417 0.0033966559 
 1870000    2.6861159  0.024315786    28372.625    820944.26 0.0054432073 -0.0026663474 0.0015760381 
 1871000    2.6830602  0.023616047    28372.625    821500.65 0.0032727054 -0.0032666725 0.0059459179 
 1872000     2.683257  0.024502161    28372.625    822116.25 0.0068718758 -0.0022497369 0.0072303654 
 1873000    2.6799981  0.024336737    28372.625    822886.56 0.0041116421 -0.00081627899 0.0059253055 
 1874000    2.6932975  0.023686877    28372.625     823627.9 0.0050536381 -0.00025782628  0.005688203 
 1875000    2.6903222  0.023994485    28372.625    824474.27   0.00376712 -0.0011231874 0.0081611203 
 1876000    2.6758998  0.024253063    28372.625    825290.73 0.0057206791 -0.0023358215 0.0064270437 
 1877000    2.6881354  0.023891325    28372.625    825990.42 0.0079734606 0.00068378065  0.005576467 
 1878000    2.6889811   0.02353082    28372.625    826388.69 0.0069015676 0.0028617934 0.0003680191 
 1879000    2.6806716  0.023975554    28372.625    826621.88 0.0087248875 0.0040997127 -0.00024286361 
 1880000    2.6838389  0.024180596    28372.625     826564.1   0.01012571 0.0034900886 -0.00084132668 
 1881000    2.6908517  0.023902624    28372.625    826272.55 0.0095867945 0.0043529233 -0.00061586223 
 1882000    2.6908292  0.023912204    28372.625     825815.5 0.0097891652 0.0052543567 0.0022676558 
 1883000    2.6912225  0.024492849    28372.625    825628.62   0.00632404  0.004224273 0.0035100567 
 1884000    2.6752902  0.023721889    28372.625    825513.53 0.0041028301  0.002717565 -0.002596925 
 1885000    2.6909386  0.023721176    28372.625     825583.1 0.0045360386 0.0021360861 -0.0021412489 
 1886000    2.6773624  0.023982106    28372.625    825690.77 0.0026856014 -0.0013658704 -0.0028250412 
 1887000    2.6831395  0.023687602    28372.625     825785.5 0.0034030946 -0.0019916806 -0.00093820835 
 1888000    2.6905846  0.023589169    28372.625     825716.3 0.0026442787 -0.00045620118 0.0033617143 
 1889000    2.6758279  0.024479254    28372.625    825648.09 0.0058670473 -0.0022429318 -0.00078436824 
 1890000    2.6784373  0.023700419    28372.625    825782.32 0.0059965426 -0.0023186281 0.00080854408 
 1891000    2.6859931  0.023556518    28372.625     826019.4 0.0035324502 0.0024420864 -0.0053617009 
 1892000    2.6720883  0.024888731    28372.625    826122.13 0.0049874051 0.0054672396 -0.0023701325 
 1893000    2.6981482  0.024285817    28372.625    826143.62 0.0028600246  0.005924001 -0.0054001534 
 1894000     2.681537  0.024593494    28372.625    826288.86 0.0022838705 0.0045922423 -0.0053076442 
 1895000    2.6952102  0.023666988    28372.625    826331.29 0.0028417703  0.005767686 -0.0072845951 
 1896000    2.6805665  0.023811823    28372.625    826091.07 0.0010569334 0.0061682459 -0.0078229011 
 1897000    2.6866666  0.024347365    28372.625    825657.93 0.0042238266 0.0063102701 -0.0037846795 
 1898000    2.6876842  0.024454592    28372.625    825367.65 0.0030346436 0.0069440848 -0.0025003112 
 1899000    2.6685867  0.025154831    28372.625     825223.8  0.003290013 0.0051413674 0.00073460553 
 1900000    2.6810723  0.023468801    28372.625     825105.2 0.00085699458 0.0051442488 -0.0013106276 
 1901000    2.6866271  0.023914716    28372.625    825246.66 0.0002074149 0.0047010666 -0.00099865578 
 1902000    2.6859198  0.024643235    28372.625    825516.22 0.0044521171  0.011426015 -0.005702196 
 1903000    2.6822566   0.02360088    28372.625    825581.22 0.0038949952 0.0039801141 -0.0052932163 
 1904000    2.6831548  0.024149082    28372.625    825778.62 0.00097222276 0.0036800425 -0.0044997586 
 1905000    2.6897458  0.023952386    28372.625    826227.37 -0.00026201965 0.0049120406 -0.0041822025 
 1906000    2.6932051  0.023996574    28372.625    826974.91 -0.001462636 0.0068371041 -0.0037548555 
 1907000    2.6938132  0.023589662    28372.625    827915.93 -0.0021505688 0.0054706788 -0.0034884981 
 1908000    2.6632942  0.026521744    28372.625    828603.71 0.00071907964 0.0047617387 -0.0049687336 
 1909000    2.6764939  0.024565431    28372.625    828774.28 0.00093304182 0.0033962176 -0.0089112168 
 1910000    2.6748676   0.02377562    28372.625    828581.86 0.0021421799 0.0043905434 -0.0051121544 
 1911000    2.6898218  0.023452899    28372.625    828291.78 0.0031564029 0.0024500545 -0.0041043216 
 1912000    2.6944164   0.02338795    28372.625    827985.49 0.0012390828 0.0021948811 -0.0042858134 
 1913000     2.673417  0.024681078    28372.625    827671.83 0.00017596507  0.004587301 -0.0080902819 
 1914000    2.6729919  0.024400283    28372.625    827535.75 0.0022344103 0.0028215292 -0.0053097724 
 1915000     2.667318  0.024968997    28372.625    827525.73  0.008163405 0.0040739832 -0.0064211204 
 1916000    2.6839663  0.023944947    28372.625    827538.96 0.0043128915 0.0026417726 -0.0054312984 
 1917000    2.6772623  0.025205152    28372.625    827558.39 0.0041847491 0.0024984627 -0.0074509184 
 1918000    2.6914162  0.024542607    28372.625    827624.78 0.0067355748 0.0074500367 -0.0061677603 
 1919000    2.6842258  0.023521152    28372.625    827773.16 0.0056450496 0.0060007376 -0.0095718545 
 1920000    2.6903437  0.024328976    28372.625    828019.59 0.0072813874  0.003252382 -0.010323678 
 1921000    2.6876371  0.025039926    28372.625    828251.08 0.0045245134 0.00034999455 -0.0038992444 
 1922000    2.6899124  0.024458071    28372.625    828286.69 0.0078235957 0.0076298165 -0.0068003414 
 1923000    2.6891923  0.023532202    28372.625    828129.87 0.0073840243 0.0071120156 -0.0075255244 
 1924000    2.6852928  0.024126836    28372.625    828179.64 0.0039007902 5.9712311e-05 -0.0030255911 
 1925000    2.6915675  0.023915751    28372.625    828383.13 0.0051112026 -0.00041804779 -0.0023233209 
 1926000    2.6875591  0.023496806    28372.625    828544.12 0.0049263267 0.00057043084 -0.0029891094 
 1927000     2.692271   0.02370977    28372.625    828925.82   0.00234961 0.0031913231 -0.0071825102 
 1928000    2.6858062  0.024012627    28372.625     829254.8 0.0032530581 0.0022089085 -0.008045746 
 1929000    2.6492449  0.025726858    28372.625    829604.82 0.0046361564 0.0028522992 -0.0080449454 
 1930000    2.6846141  0.023970826    28372.625    830320.03 0.0024951422 0.0036853849 -0.0098365532 
 1931000    2.6770296  0.024311778    28372.625    831123.45 0.0036983804 0.0020305902 -0.011449065 
 1932000    2.6942911  0.023759955    28372.625    831895.52 0.0038629583 0.00082482497 -0.0097765012 
 1933000    2.6764886  0.023895796    28372.625    832531.39 0.0045509559 -0.00030297607 -0.0063856383 
 1934000    2.6877989  0.023438834    28372.625    833084.13 -0.00060238556 0.0023503842 -0.007306556 
 1935000    2.6936423  0.023947894    28372.625    833485.53 0.00057148828 0.0013205207 -0.0066958256 
 1936000    2.6831771  0.025049053    28372.625    833616.03 0.0017096408 0.0013124088 -0.0068972859 
 1937000    2.6771161  0.024675809    28372.625    833563.98 0.0032162098 0.0026324119 -0.0069494494 
 1938000    2.6750859  0.024505281    28372.625    833365.52 0.0032591047 0.0051930129 -0.0049037466 
 1939000    2.6766294  0.024197982    28372.625    833247.52 0.0019726221 0.0013855367 -0.0066953253 
 1940000    2.6845051  0.024552888    28372.625    833074.52 0.0042031806 -0.001017007 -0.0071927026 
 1941000    2.6872924  0.023860071    28372.625    832806.33 0.0032444732 0.0021253588 -0.0073173101 
 1942000     2.694281  0.024189294    28372.625    832760.66 0.0020694275 -0.0010451043 -0.0043011396 
 1943000    2.6850745   0.02343172    28372.625    832791.93 0.0024668324 -0.0031604807 -0.0044473353 
 1944000    2.6940541  0.023913018    28372.625    832881.25  0.005996626 -0.0033586661 -0.0073011848 
 1945000    2.6847437  0.023671132    28372.625    833147.17   0.00634977 -0.0028108171 -0.006364649 
 1946000    2.7015415  0.024354008    28372.625    833336.18 0.0014092936 -0.0007058324 -0.0015581954 
 1947000    2.6766125  0.025399881    28372.625    833536.66 0.00084331031 -0.0046808057 -0.0005315677 
 1948000    2.7015174  0.023724766    28372.625    833956.18 0.0053480837 -0.0031008714 0.0019506292 
 1949000    2.6940768  0.023736374    28372.625    834388.42 0.0065086325 -0.0039466439 -0.0028657878 
 1950000    2.6937523  0.024191096    28372.625    834821.82 0.0059662236 -0.0030196973 -0.0064237773 
 1951000    2.6833977  0.024764614    28372.625    835182.56 0.0043345458 -0.0043116075 -0.0074201839 
 1952000    2.6892359  0.023852001    28372.625    835526.81 0.0044931063 -0.0036844321 -0.0054881291 
 1953000    2.6709536  0.025402747    28372.625    836047.73 0.0038091341 -0.0074983243 -0.0064735628 
 1954000    2.6875912  0.024195969    28372.625    836542.22 0.0027446689 -0.0077958951 -0.005452887 
 1955000    2.7004958  0.024884676    28372.625    837110.43 0.0039964335 -0.0099656105 -0.0044169602 
 1956000    2.6961529  0.025198965    28372.625    837728.48 0.0044837108 -0.0046670849 -0.0096355758 
 1957000    2.7073973  0.023895983    28372.625    838355.83 0.0028981549 -0.0044162131 -0.0050147978 
 1958000    2.6849659  0.024312981    28372.625    838956.25 -0.0034692377 -0.0025870473 -0.0051925593 
 1959000    2.6810227  0.024458859    28372.625    839616.37 -0.0062726579 0.00064384367 -0.0029181729 
 1960000    2.6895076  0.023539068    28372.625    840391.57 -0.003024575 0.0028065459 -0.0037156515 
 1961000     2.666437  0.024867153    28372.625    841138.75  0.005771873 0.0091928631 -0.0039268765 
 1962000    2.6895142  0.023828735    28372.625    841898.34 0.00023196735   0.00527348 0.00029386632 
 1963000    2.6766095  0.023934131    28372.625    842626.94 -0.00021218416 0.0026408533 0.0017324591 
 1964000    2.6818828  0.024018851    28372.625    843414.94 0.0023969331 -0.00024505371 0.0033356876 
 1965000    2.6897442  0.023999583    28372.625     844065.3 0.0039353417 0.0049013502 -0.0016266283 
 1966000    2.6886595   0.02449088    28372.625    844474.74   0.00758972 0.0037244334 0.0034906832 
 1967000    2.6886756  0.023648457    28372.625    845019.26  0.008319459 -0.00022584498 0.0029715059 
 1968000    2.6737284  0.025379037    28372.625    845716.27 0.0086049933 0.0010594466 0.0064334365 
 1969000    2.6849035  0.024329401    28372.625    846277.22 0.0035625771 0.0002200182 0.0047164685 
 1970000    2.6933609   0.02364546    28372.625    846917.33 0.0053586119 0.00094417924  0.003583409 
 1971000    2.6856021  0.023540099    28372.625    847566.62 0.0058718447 0.00070146677 0.0038671352 
 1972000      2.67835  0.024723372    28372.625     847950.8 0.00065847339 0.0016752648 0.0013128728 
 1973000    2.7008734  0.023692112    28372.625    848252.38 0.0032801253 0.0047616653 -0.00044350541 
 1974000     2.694201  0.023521568    28372.625    848598.72 0.0028636072 0.0057076902 -0.0024182223 
 1975000    2.6806426  0.023452635    28372.625     848871.6 0.0016746984 0.0028205544 -0.00056422115 
 1976000    2.6891878  0.024022467    28372.625    849129.38 0.0025040323 0.0015651223   0.00432834 
 1977000    2.6848559  0.023548049    28372.625    849775.86 0.00026651418 -0.00015133391 0.0041127685 
 1978000    2.6887658   0.02457593    28372.625    850488.13 0.00026416465 -0.00043987495 0.0027371743 
 1979000     2.695754  0.024460772    28372.625     851214.7 0.0010077473 -0.0020911187  0.004027437 
 1980000    2.6900138  0.024325306    28372.625    852023.07 -0.0021856366 -0.0021854768 0.00070110781 
 1981000    2.6743319  0.024542223    28372.625    853007.99 0.00095231927 -0.0061630191 0.0020971455 
 1982000    2.6765632  0.023815429    28372.625    854073.05 -0.0029418221 -0.0060535308 -0.0025198027 
 1983000    2.6878618  0.023476931    28372.625    855335.95 -0.0074892007 -0.0071585103 0.00025400693 
 1984000    2.6839495  0.024333909    28372.625       856420 -0.004978636 -0.0043126789 -0.0018652345 
 1985000    2.6878935  0.023659823    28372.625    857378.22 -0.0073544794 -0.0040057068 -0.0018490543 
 1986000    2.6819406  0.023534828    28372.625    858302.68 -0.0085324279 -0.0036002953 -0.0015287356 
 1987000    2.6858556  0.024115208    28372.625     859078.8 -0.011988218 -0.0064913462 -0.0010174518 
 1988000    2.6883007  0.023789552    28372.625    860164.46 -0.0076268369 -0.0076052643 -0.0039184049 
 1989000    2.6884057  0.023741773    28372.625    860981.04 -0.0034264235 -0.0064844219 -0.0018329488 
 1990000    2.6890981  0.023783685    28372.625    861692.92 -0.0035639476 -0.0073318255 -0.0022394059 
 1991000    2.6859885  0.024380909    28372.625    862468.41 -0.0059426029 -0.0048692855 -0.00071010617 
 1992000    2.6822221  0.023822788    28372.625    863237.93 -0.0039851468 -0.0047362675 -0.0021915607 
 1993000    2.6889034  0.024088535    28372.625    863887.09 0.00054138263 -0.0051260013 -0.0023951116 
 1994000    2.6894732  0.024254577    28372.625     864267.9 -0.0049564819 -0.0081452682 -9.8467965e-05 
 1995000    2.6941976  0.023516422    28372.625    864572.08 0.00074077814 -0.0047445126 -0.0033897569 
 1996000    2.6861645  0.023609883    28372.625    864971.83 0.0009324492 -0.0044088218 -0.0026446508 
 1997000    2.6932276  0.024192042    28372.625     865552.8 0.0026482449 -0.0049075765 -0.0032417219 
 1998000    2.6773683  0.023892117    28372.625    866395.96 0.00086941698 -0.0027919946 -0.0022879601 
 1999000    2.6927044  0.023813185    28372.625    867338.81 0.0034483882 0.00064992902 -0.0043109566 
 2000000    2.6825685  0.024041441    28372.625     868217.2 0.0051217456 -0.0022025085 -0.0073088681 
Loop time of 750.329 on 1 procs for 2000000 steps with 256 atoms

Pair  time (%) = 10.5311 (1.40353)
Neigh time (%) = 13.1155 (1.74797)
Comm  time (%) = 5.38509 (0.717697)
Outpt time (%) = 0.188456 (0.0251164)
Other time (%) = 721.109 (96.1057)

Nlocal:    256 ave 256 max 256 min
Histogram: 1 0 0 0 0 0 0 0 0 0
Nghost:    173 ave 173 max 173 min
Histogram: 1 0 0 0 0 0 0 0 0 0
Neighs:    107 ave 107 max 107 min
Histogram: 1 0 0 0 0 0 0 0 0 0

Total # of neighbors = 107
Ave neighs/atom = 0.417969
Neighbor list builds = 161843
Dangerous builds = 6830
#	run			10000
	unfix			1
	uncompute		myKE
	uncompute		myPE
	uncompute		myStress
	uncompute		flux
	uncompute		myDis
	unfix			JJ

	next seed
	next iseed
jump lmp.in.gk loop_seed
variable iseed loop 10
variable seed index 11111 22222 33333 44444 55555 66666 77777 88888 99999 11112
clear

# Lennard-Jones
#Prepare Geometry---------------------------------------------------------------
units			lj
atom_style		atomic
read_data		lmp.in.x0.1
  orthogonal box = (0 0 0) to (30.5 30.5 30.5)
  1 by 1 by 1 MPI processor grid
  256 atoms
#Initialize Structure-----------------------------------------------------------
#mass           	1  1.0
#group         		Ar type = 1
#LJ Potentials------------------------------------------------------------------
pair_style		lj/cut 2.5
pair_coeff		* * 1.0 1.0
pair_modify          	shift yes
#pair_modify   	tail no

#Variables----------------------------------------------------------------------
#LJ Parameters
variable    	kB 		equal 1.3806504e-23 	# [J/K] Boltzmann
variable	sigma_Ar 	equal 3.4e-10 		# m
variable	eps_Ar		equal 1.67e-21		# J
variable	mass_Ar		equal 6.63e-26		# kg
variable	tau_Ar		equal 2.1423e-12	# s
#thermo Parameters
variable    	T_melt 		equal 300*(${kB}/${eps_Ar})
variable    	T_melt 		equal 300*(1.3806504000000001236e-23/${eps_Ar})
variable    	T_melt 		equal 300*(1.3806504000000001236e-23/1.6699999999999999942e-21)
variable	T_0K		equal 0.00001
variable	T_2_5K		equal 2.5*(${kB}/${eps_Ar})
variable	T_2_5K		equal 2.5*(1.3806504000000001236e-23/${eps_Ar})
variable	T_2_5K		equal 2.5*(1.3806504000000001236e-23/1.6699999999999999942e-21)
variable	T_5K		equal 5*(${kB}/${eps_Ar})
variable	T_5K		equal 5*(1.3806504000000001236e-23/${eps_Ar})
variable	T_5K		equal 5*(1.3806504000000001236e-23/1.6699999999999999942e-21)
variable	T_10K		equal 10*(${kB}/${eps_Ar})
variable	T_10K		equal 10*(1.3806504000000001236e-23/${eps_Ar})
variable	T_10K		equal 10*(1.3806504000000001236e-23/1.6699999999999999942e-21)
variable	T_15K		equal 15*(${kB}/${eps_Ar})
variable	T_15K		equal 15*(1.3806504000000001236e-23/${eps_Ar})
variable	T_15K		equal 15*(1.3806504000000001236e-23/1.6699999999999999942e-21)
variable	T_320K		equal 320*(${kB}/${eps_Ar})
variable	T_320K		equal 320*(1.3806504000000001236e-23/${eps_Ar})
variable	T_320K		equal 320*(1.3806504000000001236e-23/1.6699999999999999942e-21)

variable   	dt 		equal 0.002
variable	quench_rate	equal 1.0
variable	quench_length 	equal 10000
#kappa parameters
variable    	p 		equal 200000 		# correlation length
variable    	s 		equal 5  		# sample interval
variable    	d 		equal $p*$s 		# dump interval
variable    	d 		equal 200000*$s 		
variable    	d 		equal 200000*5 		

#SED parameters
variable	w_step		equal 2^5
variable	w_total		equal 2^16
variable	t_total		equal 2^18
variable	num_ffts	equal ${t_total}/${w_total}
variable	num_ffts	equal 262144/${w_total}
variable	num_ffts	equal 262144/65536

#------------ RUN TEMP ---------------------------------------------------------------------
variable 	T_run 		equal ${T_320K}
variable 	T_run 		equal 2.6455576526946114058
#------------ RUN TEMP ---------------------------------------------------------------------

log 	log_heat_${iseed}.lammps
log 	log_heat_4.lammps
