
#------------ NVE rescale ---------------------------------------------------------------------

	velocity 		all create ${T_run} ${seed} rot yes dist gaussian
	velocity 		all create 2.6455576526946114058 ${seed} rot yes dist gaussian
	velocity 		all create 2.6455576526946114058 22222 rot yes dist gaussian

	fix 			1 all nve
	fix 			2 all temp/rescale 1 ${T_run} ${T_run} 0.01 1.0
	fix 			2 all temp/rescale 1 2.6455576526946114058 ${T_run} 0.01 1.0
	fix 			2 all temp/rescale 1 2.6455576526946114058 2.6455576526946114058 0.01 1.0
	timestep		${dt}
	timestep		0.0020000000000000000416
	thermo_style  		custom step temp press etotal vol
	thermo			1000
	run             	200000
Memory usage per processor = 1.67356 Mbytes
Step Temp Press TotEng Volume 
       0    2.6455577  0.023669049   -1.5687558    28372.625 
    1000    2.6362481  0.019082158    3.0482804    28372.625 
    2000    2.6540227  0.020350786    3.2388851    28372.625 
    3000    2.6468788  0.023850829     3.341862    28372.625 
    4000    2.6439835  0.023585365    3.3941362    28372.625 
    5000    2.6495988  0.021462481    3.4402332    28372.625 
    6000    2.6467503  0.022878129    3.5318665    28372.625 
    7000    2.6505075  0.023208081    3.5935849    28372.625 
    8000    2.6433228  0.022274757    3.6461768    28372.625 
    9000    2.6406903  0.022546225    3.7450418    28372.625 
   10000    2.6437542    0.0228288    3.7608084    28372.625 
   11000    2.6494952  0.023122729    3.8223987    28372.625 
   12000    2.6507009  0.023628124    3.8094814    28372.625 
   13000    2.6499368  0.023095101    3.8443199    28372.625 
   14000    2.6523037  0.023336213    3.8607074    28372.625 
   15000    2.6475535  0.023662144    3.8353858    28372.625 
   16000    2.6504234  0.023429813    3.8661111    28372.625 
   17000    2.6509135   0.02376394    3.8711791    28372.625 
   18000    2.6493494  0.023695857    3.8777171    28372.625 
   19000    2.6504519   0.02275506    3.8622229    28372.625 
   20000    2.6482242  0.023103139    3.8642974    28372.625 
   21000    2.6496632  0.023376093    3.8736415    28372.625 
   22000    2.6415185  0.024192761    3.8743707    28372.625 
   23000    2.6455577  0.024552827    3.8794166    28372.625 
   24000    2.6451303  0.023790887    3.8940025    28372.625 
   25000     2.644829  0.024181066    3.9109906    28372.625 
   26000    2.6480603  0.023333359    3.8956265    28372.625 
   27000    2.6504921   0.02321119    3.8982283    28372.625 
   28000    2.6545115  0.023543917    3.9120347    28372.625 
   29000     2.648024  0.023653387    3.8856432    28372.625 
   30000    2.6442997  0.024284419    3.9197727    28372.625 
   31000    2.6525356  0.023141762    3.9114722    28372.625 
   32000    2.6519923  0.023759026    3.8969695    28372.625 
   33000    2.6449744   0.02323571    3.8985554    28372.625 
   34000    2.6431971  0.023271531    3.8877145    28372.625 
   35000    2.6378676  0.024428965    3.8995702    28372.625 
   36000    2.6536938  0.023284701    3.8997565    28372.625 
   37000    2.6504936  0.023651508    3.8890212    28372.625 
   38000     2.647327  0.023031359    3.8921026    28372.625 
   39000     2.643414  0.022986384    3.8940136    28372.625 
   40000    2.6458093  0.023463587    3.9047174    28372.625 
   41000    2.6453004  0.023434818    3.8929723    28372.625 
   42000    2.6443233  0.023625316    3.9117555    28372.625 
   43000     2.642908  0.023842915    3.9106929    28372.625 
   44000    2.6461414  0.023464062    3.9182655    28372.625 
   45000    2.6462873  0.024052709    3.9043812    28372.625 
   46000     2.650985  0.023332839    3.9051855    28372.625 
   47000     2.650509  0.023610918    3.9101167    28372.625 
   48000    2.6459044  0.023476877    3.9088799    28372.625 
   49000    2.6420668  0.024404164    3.9121721    28372.625 
   50000    2.6510089  0.023749938    3.9277993    28372.625 
   51000    2.6464675  0.024005827    3.9085973    28372.625 
   52000    2.6428057  0.023145878    3.8934525    28372.625 
   53000    2.6475915  0.023032716    3.9076146    28372.625 
   54000    2.6448521  0.023930517    3.8925162    28372.625 
   55000    2.6429529  0.024385806     3.915643    28372.625 
   56000    2.6459759   0.02339586    3.8861127    28372.625 
   57000    2.6503961  0.023466288    3.9177139    28372.625 
   58000    2.6446581  0.023467346    3.9023352    28372.625 
   59000    2.6530414   0.02325449    3.9183398    28372.625 
   60000    2.6455345  0.024212137    3.9203488    28372.625 
   61000    2.6435782  0.024226663    3.9234898    28372.625 
   62000    2.6396983  0.023401562    3.9080285    28372.625 
   63000    2.6397329  0.023772347    3.9162734    28372.625 
   64000    2.6425194  0.024078607    3.8986047    28372.625 
   65000    2.6431339  0.023223873    3.8958198    28372.625 
   66000    2.6357111  0.024958028    3.8993659    28372.625 
   67000    2.6524999  0.023305172    3.9181829    28372.625 
   68000     2.649883  0.023543417    3.9057774    28372.625 
   69000    2.6463723   0.02331612    3.9078141    28372.625 
   70000    2.6386406  0.023741338    3.8809374    28372.625 
   71000    2.6546519  0.024152123    3.9317031    28372.625 
   72000     2.649694  0.023216197    3.9019202    28372.625 
   73000    2.6462513  0.023323751    3.9186871    28372.625 
   74000    2.6469112  0.023541017    3.9224872    28372.625 
   75000    2.6369386  0.023123579    3.8903794    28372.625 
   76000    2.6441705  0.024102542    3.9042685    28372.625 
   77000    2.6429284  0.023109208    3.9067571    28372.625 
   78000    2.6543459  0.023395772    3.9060453    28372.625 
   79000    2.6387048  0.024411215    3.9076279    28372.625 
   80000     2.646974   0.02392374    3.8941006    28372.625 
   81000    2.6519225   0.02332227    3.9178466    28372.625 
   82000     2.646637  0.023830533    3.8890765    28372.625 
   83000    2.6536529  0.023672907    3.9068671    28372.625 
   84000    2.6455577  0.024571588    3.9116309    28372.625 
   85000     2.652368  0.023317346    3.9211022    28372.625 
   86000    2.6537485  0.023394275    3.9079368    28372.625 
   87000    2.6519589  0.023928037    3.9105035    28372.625 
   88000     2.649318  0.023953529     3.910669    28372.625 
   89000    2.6390341  0.023994274    3.9100835    28372.625 
   90000      2.64665  0.024148554    3.9242708    28372.625 
   91000    2.6443448  0.023189057    3.8950636    28372.625 
   92000    2.6418353  0.025237023    3.9412706    28372.625 
   93000    2.6517641    0.0233465    3.9101804    28372.625 
   94000    2.6497991  0.023071666    3.8832658    28372.625 
   95000    2.6475585  0.024161111    3.9112531    28372.625 
   96000    2.6434131  0.023408425    3.9116527    28372.625 
   97000    2.6455577   0.02355303    3.9090377    28372.625 
   98000    2.6440293  0.023828644    3.8969838    28372.625 
   99000    2.6544939  0.023854875    3.9262237    28372.625 
  100000    2.6499804   0.02343274    3.9299345    28372.625 
  101000    2.6385351  0.024823507    3.9164055    28372.625 
  102000    2.6532519  0.023329125    3.9041512    28372.625 
  103000    2.6420081  0.024347624    3.9054611    28372.625 
  104000    2.6515115  0.023222199    3.8967214    28372.625 
  105000    2.6474553  0.023392069    3.8823363    28372.625 
  106000    2.6509859  0.023624277    3.9291498    28372.625 
  107000     2.646405  0.023630032    3.9143913    28372.625 
  108000    2.6538608  0.023860569    3.9011826    28372.625 
  109000    2.6507054  0.023793252    3.9165873    28372.625 
  110000    2.6464019  0.023493813    3.8987677    28372.625 
  111000    2.6504322  0.023624662    3.9125241    28372.625 
  112000    2.6400257  0.023737626    3.8900278    28372.625 
  113000    2.6481679   0.02325396    3.9035395    28372.625 
  114000    2.6456191  0.023606772    3.9072419    28372.625 
  115000    2.6404824  0.024948485      3.92946    28372.625 
  116000    2.6401766  0.023650325    3.9230753    28372.625 
  117000    2.6532783  0.023685007      3.89373    28372.625 
  118000    2.6488266  0.023819335    3.9129398    28372.625 
  119000    2.6463103   0.02399548    3.9015051    28372.625 
  120000    2.6553277  0.023380159     3.914471    28372.625 
  121000     2.639611  0.025571564     3.939948    28372.625 
  122000    2.6522216  0.023250937    3.9087072    28372.625 
  123000     2.653908  0.023168248    3.8941366    28372.625 
  124000    2.6492118  0.023373039    3.9025806    28372.625 
  125000    2.6441622  0.023935592    3.9034009    28372.625 
  126000    2.6525316  0.023361902    3.9044109    28372.625 
  127000    2.6493806  0.024018246    3.9249919    28372.625 
  128000    2.6506138   0.02320169     3.914045    28372.625 
  129000    2.6439995  0.024520524    3.9433419    28372.625 
  130000     2.646524  0.023373809    3.9174119    28372.625 
  131000    2.6452739  0.023400508    3.9100311    28372.625 
  132000    2.6490233  0.023463846    3.9049544    28372.625 
  133000    2.6410692  0.023511794    3.8910908    28372.625 
  134000    2.6449263  0.023360568    3.8949467    28372.625 
  135000    2.6519866  0.023851555    3.9113768    28372.625 
  136000    2.6485654  0.023661358    3.9119827    28372.625 
  137000    2.6467585  0.023318964    3.9121759    28372.625 
  138000    2.6476532  0.023114777    3.8825548    28372.625 
  139000     2.653247  0.023702624    3.9280163    28372.625 
  140000     2.639923  0.023679571     3.900206    28372.625 
  141000    2.6455754   0.02444203    3.9162981    28372.625 
  142000    2.6444008  0.023145171    3.9017387    28372.625 
  143000    2.6475631  0.023521353     3.910499    28372.625 
  144000    2.6498418  0.023408061    3.9087307    28372.625 
  145000    2.6525579  0.024394921     3.927386    28372.625 
  146000    2.6454534  0.024119823    3.9007093    28372.625 
  147000    2.6473354  0.023599325    3.9003373    28372.625 
  148000    2.6467621  0.023263348    3.8992867    28372.625 
  149000    2.6474962  0.023030309    3.8829852    28372.625 
  150000    2.6490796  0.023350424    3.8857081    28372.625 
  151000    2.6487853  0.023405243    3.9026607    28372.625 
  152000    2.6451532  0.023233691    3.8927713    28372.625 
  153000    2.6467327  0.023892444    3.9197674    28372.625 
  154000    2.6462238  0.023502556    3.8953018    28372.625 
  155000    2.6380575  0.023134187    3.8975293    28372.625 
  156000     2.642139  0.024001023    3.9169715    28372.625 
  157000    2.6419135  0.024362304    3.9051943    28372.625 
  158000    2.6500853  0.023100761    3.9041639    28372.625 
  159000     2.649865  0.023137551     3.904974    28372.625 
  160000    2.6452379  0.023096831    3.8743623    28372.625 
  161000    2.6447882  0.023460153    3.8930416    28372.625 
  162000    2.6424462  0.024415341      3.89409    28372.625 
  163000    2.6524884  0.023282942    3.9232958    28372.625 
  164000    2.6528069  0.023263533     3.925159    28372.625 
  165000    2.6468545    0.0242702    3.9124371    28372.625 
  166000    2.6379113  0.024084016    3.8788204    28372.625 
  167000     2.645637  0.023588167    3.9091311    28372.625 
  168000    2.6466482  0.024006763    3.8998599    28372.625 
  169000    2.6455577  0.023167246    3.8997852    28372.625 
  170000    2.6480305  0.023282835     3.915626    28372.625 
  171000    2.6491351   0.02386232    3.9187274    28372.625 
  172000    2.6522925  0.022978572    3.8900572    28372.625 
  173000    2.6483952  0.023622044    3.9224317    28372.625 
  174000    2.6377768  0.024262674    3.9056936    28372.625 
  175000    2.6471325  0.023542666    3.9102099    28372.625 
  176000    2.6512903  0.023711035    3.9121358    28372.625 
  177000    2.6448747  0.024687895     3.917487    28372.625 
  178000    2.6481426  0.023474855    3.9045145    28372.625 
  179000    2.6408131  0.023684325    3.9072545    28372.625 
  180000    2.6413326  0.023699129    3.8932454    28372.625 
  181000    2.6434367  0.024246687    3.9089956    28372.625 
  182000    2.6442638  0.023446079    3.9080126    28372.625 
  183000    2.6424817  0.023181058    3.9081275    28372.625 
  184000    2.6523304  0.024055245    3.9241465    28372.625 
  185000    2.6452293  0.023385852    3.9124364    28372.625 
  186000    2.6367368  0.025223402    3.9182277    28372.625 
  187000    2.6473688  0.023828844    3.9228555    28372.625 
  188000     2.647704  0.023228528    3.9107898    28372.625 
  189000    2.6551063  0.023508444    3.9139399    28372.625 
  190000     2.641794  0.024083567    3.9245899    28372.625 
  191000    2.6552995  0.023284717    3.9107341    28372.625 
  192000    2.6527662  0.024110555    3.9208617    28372.625 
  193000    2.6376645   0.02404519    3.9047566    28372.625 
  194000    2.6536732  0.023875005    3.9222841    28372.625 
  195000    2.6505809  0.023450966    3.9021693    28372.625 
  196000      2.65064  0.023304562    3.9058721    28372.625 
  197000    2.6461451  0.023602154    3.9092829    28372.625 
  198000     2.638344  0.024111416    3.9150936    28372.625 
  199000    2.6418668  0.023786465    3.9163759    28372.625 
  200000    2.6422362  0.023059302    3.9022806    28372.625 
Loop time of 3.63148 on 1 procs for 200000 steps with 256 atoms

Pair  time (%) = 0.829626 (22.8454)
Neigh time (%) = 1.28575 (35.4057)
Comm  time (%) = 0.446697 (12.3007)
Outpt time (%) = 0.00649166 (0.178761)
Other time (%) = 1.06291 (29.2694)

Nlocal:    256 ave 256 max 256 min
Histogram: 1 0 0 0 0 0 0 0 0 0
Nghost:    170 ave 170 max 170 min
Histogram: 1 0 0 0 0 0 0 0 0 0
Neighs:    101 ave 101 max 101 min
Histogram: 1 0 0 0 0 0 0 0 0 0

Total # of neighbors = 101
Ave neighs/atom = 0.394531
Neighbor list builds = 16304
Dangerous builds = 838
#	run             	1000
	unfix 			1
	unfix 			2

#------------ NVE -----------------------------------------------------------------------------

	fix 			1 all nve
	timestep		${dt}
	timestep		0.0020000000000000000416
	thermo_style  		custom step temp press etotal vol
	thermo			1000
	run             	100000
Memory usage per processor = 1.67356 Mbytes
Step Temp Press TotEng Volume 
  200000    2.6422362  0.023059302    3.9022806    28372.625 
  201000    2.6601072  0.023423778    3.9022675    28372.625 
  202000    2.6341464  0.024230893    3.9022803    28372.625 
  203000    2.6413004  0.024098994    3.9022585    28372.625 
  204000     2.657973  0.024196843    3.9022798    28372.625 
  205000    2.6478334  0.023574148    3.9022772    28372.625 
  206000    2.6301431  0.024679612    3.9022742    28372.625 
  207000    2.6416798  0.023371265    3.9022768    28372.625 
  208000    2.6407439  0.023883131    3.9022724    28372.625 
  209000    2.6361994  0.024330031     3.902272    28372.625 
  210000    2.6517665   0.02323006    3.9022858    28372.625 
  211000    2.6375249  0.023266096    3.9022919    28372.625 
  212000    2.6377363  0.023533728    3.9022875    28372.625 
  213000    2.6422521  0.023630108    3.9022827    28372.625 
  214000    2.6348679    0.0233482    3.9022847    28372.625 
  215000    2.6347057  0.024544731    3.9022794    28372.625 
  216000    2.6482887  0.023750348    3.9022745    28372.625 
  217000    2.6486041  0.023087774    3.9022857    28372.625 
  218000     2.660002  0.023315995    3.9022766    28372.625 
  219000    2.6509758  0.023456255    3.9022821    28372.625 
  220000    2.6477029  0.023867425    3.9022837    28372.625 
  221000    2.6365474  0.023117351    3.9022929    28372.625 
  222000    2.6312916  0.024291346    3.9022964    28372.625 
  223000    2.6457559  0.023495099    3.9022922    28372.625 
  224000    2.6464256   0.02318692    3.9022906    28372.625 
  225000    2.6539488  0.023471496    3.9023013    28372.625 
  226000    2.6423047  0.022979018    3.9023047    28372.625 
  227000    2.6362905  0.023184691    3.9023082    28372.625 
  228000    2.6425581  0.023149409    3.9023084    28372.625 
  229000    2.6344883  0.024064339    3.9023045    28372.625 
  230000    2.6460391   0.02379368    3.9022754    28372.625 
  231000    2.6408453  0.024109147    3.9022864    28372.625 
  232000    2.6360016  0.023682278    3.9022877    28372.625 
  233000    2.6470512  0.023189991    3.9022887    28372.625 
  234000    2.6165896  0.024467365       3.9023    28372.625 
  235000     2.629172  0.024804749    3.9022819    28372.625 
  236000     2.622972  0.023972798    3.9022163    28372.625 
  237000    2.6370918  0.023238769    3.9022818    28372.625 
  238000    2.6410951   0.02365182    3.9022888    28372.625 
  239000    2.6325643  0.023864092    3.9022818    28372.625 
  240000    2.6444588  0.023520175    3.9022708    28372.625 
  241000     2.641902  0.023445654    3.9022851    28372.625 
  242000    2.6434012  0.023331975    3.9022945    28372.625 
  243000    2.6505943  0.023128504    3.9023008    28372.625 
  244000    2.6468183  0.023974555    3.9022957    28372.625 
  245000    2.6487192  0.023140742     3.902302    28372.625 
  246000    2.6357332   0.02322164    3.9023107    28372.625 
  247000    2.6511055  0.023576859    3.9022912    28372.625 
  248000    2.6383981  0.024753732    3.9023063    28372.625 
  249000    2.6369216   0.02331357    3.9023026    28372.625 
  250000    2.6498877  0.023546561     3.902305    28372.625 
  251000    2.6378792   0.02317917    3.9023195    28372.625 
  252000    2.6444906  0.023807263    3.9023228    28372.625 
  253000    2.6410707  0.023452908    3.9023283    28372.625 
  254000     2.630027  0.023127802    3.9023322    28372.625 
  255000    2.6449612  0.023865397    3.9023256    28372.625 
  256000    2.6442166  0.023913235    3.9023196    28372.625 
  257000    2.6418427  0.023085048    3.9023229    28372.625 
  258000    2.6467917  0.023390033    3.9023173    28372.625 
  259000    2.6377447  0.023224926     3.902312    28372.625 
  260000    2.6422362  0.023800917    3.9023124    28372.625 
  261000    2.6356272  0.023270859    3.9023182    28372.625 
  262000    2.6412369   0.02391031    3.9023133    28372.625 
  263000    2.6438569  0.023300518    3.9023042    28372.625 
  264000    2.6160392  0.025376954    3.9023277    28372.625 
  265000    2.6384233  0.024275778    3.9023133    28372.625 
  266000    2.6425809  0.023690596    3.9023004    28372.625 
  267000    2.6421445  0.023358072    3.9023106    28372.625 
  268000     2.645075  0.023085474    3.9023167    28372.625 
  269000     2.623907  0.024708843    3.9023305    28372.625 
  270000    2.6429309  0.024152477    3.9023093    28372.625 
  271000    2.6445208  0.023346026    3.9023061    28372.625 
  272000    2.6575084  0.023372552    3.9023091    28372.625 
  273000    2.6533932  0.023566955    3.9023029    28372.625 
  274000    2.6366019  0.023841372    3.9023065    28372.625 
  275000    2.6404962  0.023529793     3.902306    28372.625 
  276000    2.6486852  0.023330408    3.9023066    28372.625 
  277000    2.6466304  0.024301756    3.9023139    28372.625 
  278000     2.639569  0.023240193    3.9023062    28372.625 
  279000     2.637478  0.023282091    3.9023152    28372.625 
  280000    2.6481784  0.023860717    3.9023111    28372.625 
  281000    2.6351351  0.023490761    3.9023292    28372.625 
  282000    2.6565828  0.023441162    3.9023347    28372.625 
  283000    2.6471008  0.023874349    3.9023372    28372.625 
  284000    2.6333305  0.023321231    3.9023431    28372.625 
  285000    2.6309572  0.024282274    3.9023244    28372.625 
  286000    2.6283577  0.023218848      3.90233    28372.625 
  287000    2.6355957  0.023217135    3.9023307    28372.625 
  288000    2.6556268  0.023711535    3.9023308    28372.625 
  289000    2.6471127  0.023478387    3.9023337    28372.625 
  290000    2.6276946   0.02435342    3.9023353    28372.625 
  291000    2.6530111  0.023877243    3.9023351    28372.625 
  292000    2.6302426   0.02453364    3.9023367    28372.625 
  293000    2.6537222  0.023819159    3.9023101    28372.625 
  294000    2.6432071  0.023483391    3.9023223    28372.625 
  295000    2.6372509  0.023787502    3.9023116    28372.625 
  296000    2.6427966  0.025138583     3.902319    28372.625 
  297000    2.6342991  0.025115616     3.902311    28372.625 
  298000    2.6630963   0.02412561     3.902315    28372.625 
  299000    2.6378582  0.024391213    3.9023276    28372.625 
  300000    2.6455989  0.023331802    3.9023208    28372.625 
Loop time of 1.61664 on 1 procs for 100000 steps with 256 atoms

Pair  time (%) = 0.350667 (21.691)
Neigh time (%) = 0.601766 (37.2232)
Comm  time (%) = 0.218714 (13.5289)
Outpt time (%) = 0.00340462 (0.210598)
Other time (%) = 0.442092 (27.3463)

Nlocal:    256 ave 256 max 256 min
Histogram: 1 0 0 0 0 0 0 0 0 0
Nghost:    142 ave 142 max 142 min
Histogram: 1 0 0 0 0 0 0 0 0 0
Neighs:    112 ave 112 max 112 min
Histogram: 1 0 0 0 0 0 0 0 0 0

Total # of neighbors = 112
Ave neighs/atom = 0.4375
Neighbor list builds = 7768
Dangerous builds = 0
#	run             	10000
	unfix 			1

#------------ kappa -------------------------------------------------------------------------
log 	log_kappa_${iseed}.lammps
log 	log_kappa_2.lammps
