
#------------ NVE rescale ---------------------------------------------------------------------

	velocity 		all create ${T_run} ${seed} rot yes dist gaussian
	velocity 		all create 2.6455576526946114058 ${seed} rot yes dist gaussian
	velocity 		all create 2.6455576526946114058 66666 rot yes dist gaussian

	fix 			1 all nve
	fix 			2 all temp/rescale 1 ${T_run} ${T_run} 0.01 1.0
	fix 			2 all temp/rescale 1 2.6455576526946114058 ${T_run} 0.01 1.0
	fix 			2 all temp/rescale 1 2.6455576526946114058 2.6455576526946114058 0.01 1.0
	timestep		${dt}
	timestep		0.0020000000000000000416
	thermo_style  		custom step temp press etotal vol
	thermo			1000
	run             	200000
Memory usage per processor = 1.67356 Mbytes
Step Temp Press TotEng Volume 
       0    2.6455577  0.023669049   -1.5687558    28372.625 
    1000    2.6358587  0.020425241    3.0780792    28372.625 
    2000    2.6454827  0.020131536    3.1541369    28372.625 
    3000    2.6459184  0.020634702    3.2329517    28372.625 
    4000     2.640871  0.022579443    3.3425434    28372.625 
    5000    2.6555289  0.022940383     3.423239    28372.625 
    6000     2.645118  0.022502158    3.4841142    28372.625 
    7000    2.6445904   0.02290457    3.5936601    28372.625 
    8000    2.6448133  0.023437016    3.6306247    28372.625 
    9000    2.6524501  0.022326996    3.6759804    28372.625 
   10000    2.6451049  0.023862352    3.7185512    28372.625 
   11000    2.6381642  0.022748388    3.7111998    28372.625 
   12000    2.6500638  0.022381261    3.7244126    28372.625 
   13000    2.6490226  0.024107811    3.7964476    28372.625 
   14000    2.6403452  0.022650504    3.7828642    28372.625 
   15000    2.6534311  0.023041933    3.8161511    28372.625 
   16000     2.652571  0.023037428    3.8209802    28372.625 
   17000    2.6479347  0.023428384    3.8359855    28372.625 
   18000     2.640507   0.02306194    3.8506261    28372.625 
   19000    2.6492367  0.023666087    3.8652319    28372.625 
   20000    2.6447637  0.023605475    3.8890228    28372.625 
   21000    2.6466288  0.023274806    3.8771866    28372.625 
   22000    2.6523379  0.023945489    3.8995527    28372.625 
   23000    2.6522774  0.023708342    3.8857939    28372.625 
   24000    2.6486339   0.02335085     3.887436    28372.625 
   25000    2.6445713  0.023427455    3.8889832    28372.625 
   26000    2.6412736  0.025811816    3.9375792    28372.625 
   27000    2.6476562  0.023701592    3.8931903    28372.625 
   28000    2.6455577  0.023738745    3.9062169    28372.625 
   29000    2.6498534  0.024064081    3.9067642    28372.625 
   30000    2.6491398  0.023300147    3.8952768    28372.625 
   31000     2.647496  0.024024064    3.9142163    28372.625 
   32000    2.6470151  0.023498254    3.9021731    28372.625 
   33000    2.6528457  0.023633508    3.9045032    28372.625 
   34000    2.6452733  0.023401808    3.9033781    28372.625 
   35000     2.644557  0.024078231    3.8908426    28372.625 
   36000    2.6468072  0.023251203     3.905626    28372.625 
   37000    2.6477388  0.023462729    3.9172311    28372.625 
   38000    2.6452511  0.023866678    3.9217263    28372.625 
   39000      2.63834  0.023347429      3.89005    28372.625 
   40000    2.6534867  0.023437326    3.9232794    28372.625 
   41000    2.6531227  0.023539522    3.9099622    28372.625 
   42000    2.6417307   0.02449382    3.9069321    28372.625 
   43000    2.6524546  0.023570011      3.90164    28372.625 
   44000    2.6481897  0.023455266    3.9080287    28372.625 
   45000    2.6482892  0.023095687    3.9079873    28372.625 
   46000    2.6419414  0.024443401    3.8921789    28372.625 
   47000    2.6501784  0.023077425    3.8921145    28372.625 
   48000    2.6522481  0.023394291    3.9126016    28372.625 
   49000    2.6484558  0.023354511    3.8651831    28372.625 
   50000    2.6535767  0.023392213    3.8979866    28372.625 
   51000    2.6487146  0.023444737     3.897628    28372.625 
   52000     2.646062  0.023274615    3.9040331    28372.625 
   53000    2.6388155  0.023778298    3.9048979    28372.625 
   54000    2.6530098    0.0233644    3.8916947    28372.625 
   55000    2.6463151  0.022951519    3.8852739    28372.625 
   56000    2.6473924  0.025145184    3.9346777    28372.625 
   57000    2.6498208  0.024076503    3.9175713    28372.625 
   58000    2.6455337   0.02337517    3.8907915    28372.625 
   59000    2.6389229  0.023449732    3.8972606    28372.625 
   60000    2.6477406  0.023431485    3.8965188    28372.625 
   61000    2.6533538  0.023632852    3.9172252    28372.625 
   62000    2.6424766  0.023235604    3.8926886    28372.625 
   63000    2.6497535   0.02352296    3.9003276    28372.625 
   64000    2.6473949  0.023752647    3.9014297    28372.625 
   65000    2.6462145  0.024395546    3.9039989    28372.625 
   66000    2.6465088  0.023781313    3.9027203    28372.625 
   67000    2.6466016  0.023233565    3.9147118    28372.625 
   68000    2.6443471  0.024334067    3.9136566    28372.625 
   69000      2.64625  0.023597093    3.9160741    28372.625 
   70000    2.6403274  0.024120595    3.9041888    28372.625 
   71000    2.6477547  0.023424775    3.9157107    28372.625 
   72000    2.6472961  0.023112381    3.9030576    28372.625 
   73000    2.6513475  0.024504709    3.9363695    28372.625 
   74000    2.6462206  0.023759903    3.9085347    28372.625 
   75000    2.6466831  0.023402896     3.916656    28372.625 
   76000    2.6438442  0.024053216    3.9198988    28372.625 
   77000    2.6512187  0.023306652    3.9218475    28372.625 
   78000    2.6373971  0.026154535    3.9428919    28372.625 
   79000    2.6491768  0.023707448    3.8933872    28372.625 
   80000    2.6488438  0.023501476    3.9072036    28372.625 
   81000       2.6473    0.0235205    3.9230294    28372.625 
   82000      2.64555  0.023351834    3.9092507    28372.625 
   83000     2.655483  0.023367701    3.9106006    28372.625 
   84000     2.650879  0.023430351    3.8977501    28372.625 
   85000    2.6358336  0.024506431    3.8966875    28372.625 
   86000    2.6389705  0.024310911    3.9139953    28372.625 
   87000    2.6486905  0.023262686    3.9010928    28372.625 
   88000    2.6474665  0.023376325    3.9019206    28372.625 
   89000    2.6453701  0.024403836    3.9221285    28372.625 
   90000    2.6392018  0.023805004    3.8923573    28372.625 
   91000    2.6497153  0.023473404    3.9069957    28372.625 
   92000    2.6430296  0.023807072    3.9058591    28372.625 
   93000    2.6530792  0.023085896    3.9037378    28372.625 
   94000    2.6450792  0.023299268    3.9058148    28372.625 
   95000    2.6526932  0.023945399    3.9208774    28372.625 
   96000    2.6381324   0.02374618    3.9062775    28372.625 
   97000    2.6461344  0.023543487    3.8982494    28372.625 
   98000    2.6456891  0.023572765    3.9165585    28372.625 
   99000    2.6435114  0.023122371    3.9015801    28372.625 
  100000    2.6553662  0.023172958    3.9131066    28372.625 
  101000    2.6528513  0.023527852    3.9150278    28372.625 
  102000     2.651096  0.024100064    3.9182928    28372.625 
  103000    2.6490989  0.023340538     3.913274    28372.625 
  104000    2.6403208  0.023786826    3.9137285    28372.625 
  105000    2.6506976  0.023906681    3.9196044    28372.625 
  106000    2.6544283  0.023251846    3.9216265    28372.625 
  107000    2.6391844  0.023702309    3.8950302    28372.625 
  108000    2.6472602  0.023780648    3.9127428    28372.625 
  109000    2.6467685  0.024462253     3.929841    28372.625 
  110000    2.6499746  0.023723137    3.9174014    28372.625 
  111000    2.6391237  0.024079807    3.9207755    28372.625 
  112000    2.6506567  0.023474807    3.8915185    28372.625 
  113000    2.6550022  0.024752442    3.9384885    28372.625 
  114000    2.6447149  0.024560311    3.9190813    28372.625 
  115000    2.6404899  0.023703242    3.9061903    28372.625 
  116000    2.6478731  0.023245006    3.8913178    28372.625 
  117000    2.6455772  0.024062032    3.9211301    28372.625 
  118000    2.6466708  0.023315714    3.9103915    28372.625 
  119000    2.6515093  0.023270909    3.9134533    28372.625 
  120000    2.6466114  0.023812561    3.9253914    28372.625 
  121000    2.6460112  0.024259766    3.9258975    28372.625 
  122000    2.6357011  0.024342499     3.911504    28372.625 
  123000     2.648237  0.023964587    3.9119929    28372.625 
  124000    2.6487226  0.023468874    3.9121981    28372.625 
  125000    2.6552337  0.023632067    3.9129855    28372.625 
  126000     2.646219  0.023595189    3.9145318    28372.625 
  127000    2.6442795   0.02335867    3.9135252    28372.625 
  128000    2.6474106  0.023675938    3.9157543    28372.625 
  129000    2.6431758  0.025279249    3.9178187    28372.625 
  130000     2.642014  0.023599335     3.903679    28372.625 
  131000    2.6477244  0.023288097    3.9059859    28372.625 
  132000    2.6477363  0.023360019    3.9084883    28372.625 
  133000    2.6463912  0.023762527    3.9241488    28372.625 
  134000    2.6490793  0.023986845     3.910237    28372.625 
  135000    2.6488875  0.023341781    3.8986566    28372.625 
  136000    2.6503621  0.023483829    3.9048644    28372.625 
  137000    2.6542063  0.023332854    3.9101234    28372.625 
  138000    2.6515034  0.023369688    3.9247199    28372.625 
  139000    2.6444567  0.023248505    3.9099028    28372.625 
  140000    2.6492957  0.023219142    3.9151857    28372.625 
  141000    2.6517175  0.023331029    3.9018506    28372.625 
  142000    2.6517273  0.023519154     3.900394    28372.625 
  143000    2.6435258  0.024900722    3.9161846    28372.625 
  144000    2.6551405  0.023364534    3.9175758    28372.625 
  145000    2.6441287  0.024257908    3.9113778    28372.625 
  146000    2.6492004  0.023286668    3.9268733    28372.625 
  147000    2.6430846   0.02380716    3.9130331    28372.625 
  148000    2.6529222  0.023507718    3.9275426    28372.625 
  149000    2.6459185  0.023428501    3.9139514    28372.625 
  150000    2.6511584  0.023073724    3.9019484    28372.625 
  151000    2.6405021   0.02393578    3.8882194    28372.625 
  152000     2.640893  0.024213082    3.9214428    28372.625 
  153000    2.6472034  0.023174313    3.9181976    28372.625 
  154000    2.6484924  0.023904524    3.9237815    28372.625 
  155000    2.6367095  0.023677102    3.9097643    28372.625 
  156000      2.63801  0.024956785    3.9117637    28372.625 
  157000    2.6548205  0.023395126    3.9149022    28372.625 
  158000    2.6446594  0.023091641    3.9028289    28372.625 
  159000    2.6391658  0.023865775    3.9020588    28372.625 
  160000    2.6384655  0.024102188    3.9203656    28372.625 
  161000    2.6526231   0.02455017    3.9369331    28372.625 
  162000    2.6403998  0.026625887    3.9374304    28372.625 
  163000    2.6484862  0.023541989     3.900979    28372.625 
  164000    2.6533544   0.02361851    3.9033951    28372.625 
  165000    2.6378563  0.025268245    3.9341901    28372.625 
  166000    2.6401532  0.025358311    3.9442359    28372.625 
  167000    2.6492893  0.023287882    3.9180882    28372.625 
  168000    2.6466509  0.023935445     3.890374    28372.625 
  169000    2.6456309  0.023066302    3.9049081    28372.625 
  170000    2.6536017  0.023769255    3.9313185    28372.625 
  171000    2.6464345  0.023941597    3.9026039    28372.625 
  172000    2.6467183  0.023100038     3.908064    28372.625 
  173000    2.6487438  0.023582985     3.908488    28372.625 
  174000    2.6419416   0.02410826    3.9097043    28372.625 
  175000    2.6469132  0.023870351    3.9242139    28372.625 
  176000    2.6426442  0.024154477    3.9085232    28372.625 
  177000    2.6550804  0.023701848    3.9195918    28372.625 
  178000    2.6428167  0.024245966    3.9220736    28372.625 
  179000    2.6523481  0.023483003    3.9201337    28372.625 
  180000    2.6471167  0.023652772    3.9215453    28372.625 
  181000    2.6508704   0.02321856    3.9068605    28372.625 
  182000    2.6465028  0.023382865    3.8928715    28372.625 
  183000     2.642994  0.024301393    3.9209636    28372.625 
  184000    2.6475985  0.023669361    3.9205657    28372.625 
  185000     2.653094  0.023420102    3.8892223    28372.625 
  186000    2.6546273  0.023280375    3.9139792    28372.625 
  187000    2.6405971  0.024474182    3.9105774    28372.625 
  188000    2.6418385  0.023802153    3.9115027    28372.625 
  189000    2.6508705  0.023307668    3.9253531    28372.625 
  190000    2.6387872  0.024168106    3.8968258    28372.625 
  191000    2.6423179   0.02363926    3.9126436    28372.625 
  192000    2.6459105  0.023711763    3.8963377    28372.625 
  193000    2.6429806  0.023913899    3.9163962    28372.625 
  194000    2.6527481  0.023193618     3.916528    28372.625 
  195000    2.6412481  0.023739341    3.9034271    28372.625 
  196000    2.6475258  0.023563292    3.9077412    28372.625 
  197000    2.6513291  0.023927716    3.9152731    28372.625 
  198000    2.6457271  0.024393085    3.9073951    28372.625 
  199000    2.6358651   0.02516127    3.9114063    28372.625 
  200000    2.6408537  0.023937622     3.924078    28372.625 
Loop time of 3.94052 on 1 procs for 200000 steps with 256 atoms

Pair  time (%) = 0.89357 (22.6764)
Neigh time (%) = 1.393 (35.3506)
Comm  time (%) = 0.48944 (12.4207)
Outpt time (%) = 0.00795293 (0.201824)
Other time (%) = 1.15656 (29.3504)

Nlocal:    256 ave 256 max 256 min
Histogram: 1 0 0 0 0 0 0 0 0 0
Nghost:    158 ave 158 max 158 min
Histogram: 1 0 0 0 0 0 0 0 0 0
Neighs:    91 ave 91 max 91 min
Histogram: 1 0 0 0 0 0 0 0 0 0

Total # of neighbors = 91
Ave neighs/atom = 0.355469
Neighbor list builds = 16497
Dangerous builds = 2122
#	run             	1000
	unfix 			1
	unfix 			2

#------------ NVE -----------------------------------------------------------------------------

	fix 			1 all nve
	timestep		${dt}
	timestep		0.0020000000000000000416
	thermo_style  		custom step temp press etotal vol
	thermo			1000
	run             	100000
Memory usage per processor = 1.67356 Mbytes
Step Temp Press TotEng Volume 
  200000    2.6408537  0.023937622     3.924078    28372.625 
  201000    2.6701779  0.023469848    3.9240896    28372.625 
  202000    2.6687192  0.023685257    3.9240931    28372.625 
  203000    2.6438019   0.02389941    3.9241049    28372.625 
  204000    2.6612393  0.023689147    3.9241105    28372.625 
  205000    2.6529653  0.024159966    3.9241147    28372.625 
  206000    2.6566058  0.024353466    3.9241106    28372.625 
  207000    2.6629214  0.023582497    3.9240968    28372.625 
  208000    2.6473872  0.023238876    3.9241047    28372.625 
  209000    2.6477727  0.023512152    3.9241031    28372.625 
  210000    2.6659004  0.024077101     3.924091    28372.625 
  211000    2.6661751  0.023902372    3.9241059    28372.625 
  212000    2.6674768  0.023517999    3.9241038    28372.625 
  213000    2.6517296  0.024187946    3.9241051    28372.625 
  214000    2.6533181  0.023261908    3.9241034    28372.625 
  215000     2.650058  0.024254003     3.924113    28372.625 
  216000    2.6498264   0.02374163    3.9241071    28372.625 
  217000    2.6498263  0.023455118     3.924114    28372.625 
  218000    2.6542119  0.023960444    3.9241163    28372.625 
  219000    2.6526568  0.023599095    3.9241106    28372.625 
  220000    2.6607601  0.023501175    3.9241077    28372.625 
  221000    2.6614279  0.023923481    3.9240849    28372.625 
  222000    2.6637541  0.023191464    3.9241154    28372.625 
  223000    2.6544502   0.02466212    3.9240868    28372.625 
  224000     2.667185  0.024319456    3.9240914    28372.625 
  225000     2.655411  0.024107396    3.9241127    28372.625 
  226000    2.6653581  0.023618633    3.9241065    28372.625 
  227000    2.6594598  0.023553023    3.9241105    28372.625 
  228000    2.6645019  0.023502911    3.9241083    28372.625 
  229000    2.6556577  0.023616217    3.9241107    28372.625 
  230000    2.6662839  0.023251295    3.9241137    28372.625 
  231000    2.6710921  0.023604606    3.9241125    28372.625 
  232000    2.6595725  0.023416214    3.9241174    28372.625 
  233000    2.6587377  0.023262835    3.9241077    28372.625 
  234000    2.6656283  0.023163724    3.9241089    28372.625 
  235000    2.6738129  0.023317914    3.9241085    28372.625 
  236000    2.6601075   0.02374623    3.9241105    28372.625 
  237000    2.6499811  0.024063636    3.9241147    28372.625 
  238000    2.6526638  0.023520083    3.9241065    28372.625 
  239000    2.6499368  0.023619972    3.9241129    28372.625 
  240000    2.6716196  0.023336944    3.9241161    28372.625 
  241000      2.65941  0.023678966    3.9241164    28372.625 
  242000    2.6674808  0.023276894    3.9241176    28372.625 
  243000    2.6610218  0.023543157    3.9241016    28372.625 
  244000     2.662665  0.023975032     3.924111    28372.625 
  245000    2.6580586  0.024143641    3.9240971    28372.625 
  246000    2.6609366  0.023455071    3.9241098    28372.625 
  247000    2.6746392  0.023828835    3.9241051    28372.625 
  248000    2.6713807   0.02327441    3.9241195    28372.625 
  249000    2.6676299   0.02361833     3.924114    28372.625 
  250000    2.6687965  0.023717932    3.9241038    28372.625 
  251000    2.6657324   0.02497185    3.9241003    28372.625 
  252000    2.6674841  0.023627788    3.9241022    28372.625 
  253000    2.6490681  0.024537655    3.9240845    28372.625 
  254000    2.6711474  0.023618307    3.9241048    28372.625 
  255000    2.6729871  0.023508537     3.924106    28372.625 
  256000    2.6485684  0.024354663    3.9241087    28372.625 
  257000    2.6522614  0.023699396    3.9241132    28372.625 
  258000    2.6675851  0.023893802    3.9241135    28372.625 
  259000    2.6637438  0.023457119     3.924111    28372.625 
  260000    2.6531789  0.023608384    3.9241129    28372.625 
  261000     2.657213  0.023758951    3.9241119    28372.625 
  262000    2.6673866  0.023365749    3.9241027    28372.625 
  263000    2.6608258  0.023842733    3.9241081    28372.625 
  264000    2.6617097  0.024300638     3.924109    28372.625 
  265000    2.6550689  0.023296763    3.9241129    28372.625 
  266000    2.6662794  0.023249324    3.9241072    28372.625 
  267000    2.6500579  0.023685307    3.9241085    28372.625 
  268000    2.6660785  0.023444061    3.9241067    28372.625 
  269000    2.6582823  0.023918124    3.9240753    28372.625 
  270000    2.6489991   0.02367464    3.9241175    28372.625 
  271000    2.6556209  0.023526282    3.9241186    28372.625 
  272000    2.6546605  0.023489255    3.9241155    28372.625 
  273000    2.6643452  0.023284816    3.9241082    28372.625 
  274000     2.657926  0.024063607    3.9241076    28372.625 
  275000    2.6679919   0.02423287    3.9240948    28372.625 
  276000     2.671326   0.02349777    3.9240832    28372.625 
  277000    2.6697365  0.023408754    3.9240975    28372.625 
  278000    2.6465458  0.024901454    3.9240988    28372.625 
  279000     2.669219  0.024216778    3.9241008    28372.625 
  280000    2.6617567  0.023452329    3.9240919    28372.625 
  281000    2.6693576  0.023207565     3.924093    28372.625 
  282000    2.6628106  0.024670455    3.9240628    28372.625 
  283000    2.6641958  0.023418627    3.9240884    28372.625 
  284000    2.6535175  0.023418161    3.9240924    28372.625 
  285000    2.6562863  0.024611438    3.9240849    28372.625 
  286000    2.6489723   0.02439612    3.9240767    28372.625 
  287000    2.6495394   0.02425827    3.9240979    28372.625 
  288000    2.6577024  0.023331828    3.9240902    28372.625 
  289000    2.6736328  0.024156779    3.9240894    28372.625 
  290000    2.6557658  0.023301242    3.9240877    28372.625 
  291000    2.6589534  0.023309091     3.924078    28372.625 
  292000    2.6291592  0.025120454    3.9241086    28372.625 
  293000    2.6414797  0.024707702    3.9240924    28372.625 
  294000    2.6622905  0.023649787    3.9240886    28372.625 
  295000    2.6625897  0.023583158     3.924093    28372.625 
  296000    2.6645922  0.023374548    3.9240938    28372.625 
  297000    2.6402494  0.023988826     3.924095    28372.625 
  298000     2.652077  0.023995064    3.9240898    28372.625 
  299000    2.6492907  0.023371778    3.9240925    28372.625 
  300000    2.6588359  0.023276107    3.9240925    28372.625 
Loop time of 1.76492 on 1 procs for 100000 steps with 256 atoms

Pair  time (%) = 0.382171 (21.6537)
Neigh time (%) = 0.656376 (37.1901)
Comm  time (%) = 0.234294 (13.2751)
Outpt time (%) = 0.00378489 (0.214451)
Other time (%) = 0.488296 (27.6667)

Nlocal:    256 ave 256 max 256 min
Histogram: 1 0 0 0 0 0 0 0 0 0
Nghost:    167 ave 167 max 167 min
Histogram: 1 0 0 0 0 0 0 0 0 0
Neighs:    104 ave 104 max 104 min
Histogram: 1 0 0 0 0 0 0 0 0 0

Total # of neighbors = 104
Ave neighs/atom = 0.40625
Neighbor list builds = 7849
Dangerous builds = 65
#	run             	10000
	unfix 			1

#------------ kappa -------------------------------------------------------------------------
log 	log_kappa_${iseed}.lammps
log 	log_kappa_6.lammps
