	reset_timestep  	0
	fix 			1 all nve
	compute   		myKE all ke/atom
	compute   		myPE all pe/atom
	compute   		myStress all stress/atom virial
	compute   		flux all heat/flux myKE myPE myStress
	variable  		Jx equal c_flux[1]/vol
	variable  		Jy equal c_flux[2]/vol
	variable  		Jz equal c_flux[3]/vol
	fix       		JJ all ave/correlate $s $p $d c_flux[1] c_flux[2] c_flux[3] type auto file J0Jt_${iseed}.dat ave running
	fix       		JJ all ave/correlate 5 $p $d c_flux[1] c_flux[2] c_flux[3] type auto file J0Jt_${iseed}.dat ave running
	fix       		JJ all ave/correlate 5 200000 $d c_flux[1] c_flux[2] c_flux[3] type auto file J0Jt_${iseed}.dat ave running
	fix       		JJ all ave/correlate 5 200000 1000000 c_flux[1] c_flux[2] c_flux[3] type auto file J0Jt_${iseed}.dat ave running
	fix       		JJ all ave/correlate 5 200000 1000000 c_flux[1] c_flux[2] c_flux[3] type auto file J0Jt_1.dat ave running
#	fix       		JJ all ave/correlate $s $p $d c_flux[1] c_flux[2] c_flux[3] type auto ave running
#	dump			JJ all custom 1000000 J0Jt.dat f_JJ[3] f_JJ[4] f_JJ[5]
	compute 		myDis all msd
	thermo_style 		custom step temp press vol c_myDis[4] v_Jx v_Jy v_Jz
	thermo			1000
	timestep		${dt}
	timestep		0.0020000000000000000416
	run			2000000
Memory usage per processor = 3.08201 Mbytes
Step Temp Press Volume myDis[4] Jx Jy Jz 
       0    2.6412276  0.023361712    28372.625            0 -0.00067489747 0.0029188577 -0.0057537027 
    1000      2.64397  0.023359031    28372.625    30.064924 0.0013234935 -0.00067341077 -0.0029834838 
    2000    2.6416119  0.023665733    28372.625    113.81102 -0.00078859463 -0.003256227 0.00090900259 
    3000    2.6309581  0.024477197    28372.625    246.96518 0.00033583431 -0.0025477791 -0.0017729275 
    4000    2.6426616  0.025127887    28372.625    413.78985 0.0040799505 -0.0031836128 -0.0073983698 
    5000    2.6498277  0.023420411    28372.625    617.67351 0.0015490733 0.0010960262 -0.0027445344 
    6000    2.6245049  0.024980988    28372.625    866.66054 0.00090458982 -2.4619419e-05 -0.00030846258 
    7000    2.6420097  0.023454908    28372.625    1130.3824 -0.00067064502 0.0016190092 -0.00075257693 
    8000     2.651393  0.023407675    28372.625    1408.9961 -0.0024353951 0.00055971359 -0.0034485873 
    9000    2.6394178  0.023985987    28372.625    1707.2091 0.0010144084 0.0055630047 -0.00070067889 
   10000    2.6501379  0.023459908    28372.625    2031.7008 -0.0046339152 0.0065553081 -0.00011572892 
   11000     2.641725  0.025225891    28372.625    2373.7303 -0.004765722 0.0033762727 -0.0023145558 
   12000    2.6387406  0.023146892    28372.625    2712.1469 -0.0056346238 0.0021023438 -0.0032635788 
   13000     2.648835   0.02318353    28372.625     3056.406 -0.0084552412  0.001850239 -0.0024695005 
   14000    2.6602582  0.023736121    28372.625     3407.223 -0.0041529526 0.0018847224 -0.0027177849 
   15000    2.6411885  0.023073442    28372.625    3775.7152  -0.00322697 0.0022977982 -0.0021426829 
   16000    2.6353403  0.023194109    28372.625    4162.5296 -0.00013515292 0.0025582664 -0.0010405596 
   17000    2.6521622  0.023270324    28372.625    4560.7993 -0.0011022859 0.0029094598 0.00028338257 
   18000    2.6419728  0.023204447    28372.625    4959.4838 -0.00085230857 0.0058081455 -0.0029987417 
   19000    2.6331656  0.024213109    28372.625    5368.8566 -0.0013797845 0.0077282296  -0.00439382 
   20000    2.6393974  0.023826935    28372.625    5799.4054 -0.0046638812 0.0082225707 -0.0023962923 
   21000    2.6256439  0.025199982    28372.625    6242.2085 -0.0069784225 0.0051881243 -0.0010609401 
   22000    2.6512993  0.024268173    28372.625    6678.1024 -0.0055625386 0.0069022426 -0.0010323064 
   23000    2.6587843  0.023379477    28372.625    7113.0863 -0.0033482544 0.0025237617 -0.003762474 
   24000    2.6579714  0.023697924    28372.625     7531.798 -0.0011290531 0.0023464375 -0.0035650729 
   25000    2.6304306  0.023921386    28372.625    7964.8838 0.00078012765 0.0018707803 -0.0033325712 
   26000     2.655512  0.023316961    28372.625    8406.2013 0.0026905984 0.0045208912 -0.0045089552 
   27000    2.6557478  0.023946193    28372.625    8864.1633 0.0019226764  0.004509726 0.00025941681 
   28000    2.6379979   0.02434998    28372.625    9306.0588 0.0027782377 0.0059261651 0.00010831289 
   29000    2.6382711  0.023632051    28372.625    9742.5357 0.0030813505 0.0076312656 0.0030790542 
   30000    2.6373475  0.023598522    28372.625    10192.556 0.0046724285 0.0060061661 0.00061331785 
   31000    2.6324994   0.02364415    28372.625    10638.961 0.0047008517 0.0082107225 -0.0015983179 
   32000    2.6469347   0.02378978    28372.625    11089.746 0.0046493371 0.0036368725 0.00013758089 
   33000    2.6467135  0.024192355    28372.625    11545.027 0.0038636203 0.0033288559 -0.00069830073 
   34000    2.6377128  0.023213986    28372.625    12007.373 0.0053129935 0.0035811844  0.002176382 
   35000    2.6384046  0.024304477    28372.625    12500.596 0.0014140387 -0.00035884505 0.0011203638 
   36000    2.6499714  0.024153153    28372.625    12982.889 0.0018945161 -0.0046475301 0.0017399299 
   37000    2.6397561  0.023170427    28372.625    13466.865 0.0019110842 -0.0028685766 0.0025137147 
   38000    2.6373543  0.023605754    28372.625    13908.596  0.001953972 -0.0026669745 0.0029773412 
   39000    2.6390754  0.023099364    28372.625    14340.119 0.0018685403 -0.0015195456 0.0038096021 
   40000    2.6504102  0.023384987    28372.625    14773.878 -0.00074112273 -0.00072501961 0.0066654623 
   41000    2.6439489  0.023106741    28372.625    15233.219 0.00024854759 -0.0015677245 0.0069412349 
   42000    2.6480818  0.023878351    28372.625    15696.567 0.00093738483 -0.0021929507 0.0067095997 
   43000    2.6471832  0.024595776    28372.625    16188.612 -0.0013000022 -0.0025512593 0.0083503549 
   44000    2.6521826  0.023178227    28372.625    16645.364 -0.00017729525 -0.0043313013 0.0069785161 
   45000    2.6444733  0.024217519    28372.625    17102.972 0.00015043727 -0.0088945952 0.0090392856 
   46000    2.6537659  0.023719234    28372.625    17568.573 -0.00020372653 -0.0047249945 0.0044533232 
   47000    2.6405643   0.02414449    28372.625    17963.334 0.00067117665 -0.0065245505 0.0038677558 
   48000    2.6441994  0.023260143    28372.625    18362.585 0.0011952371 -0.0015718265  0.003928737 
   49000    2.6389973   0.02370536    28372.625    18785.766 0.0015824388  -0.00248431 0.0050078895 
   50000     2.653046     0.023275    28372.625    19220.212 0.0023157857 1.9753308e-05 0.0048339561 
   51000    2.6474626  0.023319884    28372.625    19701.744 0.0010288515 0.00010263488 0.0035452762 
   52000    2.6505179  0.023235843    28372.625    20204.716 0.0029559318 0.0001004276 0.0061739312 
   53000    2.6506363  0.023693043    28372.625    20697.969 0.0029600281 0.0017098817 0.0071679249 
   54000    2.6441126  0.023581635    28372.625    21148.652 0.0018849289 0.0012186414 0.0059819128 
   55000    2.6491887  0.023538059    28372.625    21626.157 0.0013675493 0.0010676986 0.0058330598 
   56000     2.644669  0.024362595    28372.625    22136.647 0.0010529958 -0.0022310205 0.0093573199 
   57000    2.6382134  0.024263147    28372.625    22639.579 0.0057312212 -0.0032818803 0.0062143212 
   58000    2.6376082  0.023703407    28372.625    23125.058 0.0010160917 7.2286003e-07 0.00066700258 
   59000    2.6382232  0.023135114    28372.625    23607.041 0.0012710667 0.00022535459 0.00034283882 
   60000    2.6340625  0.024106125    28372.625    24104.902 0.00018610015 6.9497393e-05 0.0034562114 
   61000    2.6409622  0.023896245    28372.625    24602.502 0.0012444001 -0.00058426336 0.0013190025 
   62000    2.6385694  0.023178889    28372.625    25125.432 0.0017146465 -0.001440443 0.0011812484 
   63000    2.6316796   0.02414607    28372.625    25683.081 0.0007549946 0.00037365919 -0.0062374476 
   64000    2.6427397  0.023395006    28372.625    26241.558 0.0017429003 0.0021897758 -0.0045591777 
   65000    2.6338296  0.023970268    28372.625      26772.7 -1.097612e-05 0.00044109458 -0.0073971386 
   66000    2.6580093  0.023171361    28372.625    27260.523 -0.00017107897 0.00021861695 -0.0072145447 
   67000    2.6368134  0.024022052    28372.625    27750.767 0.00013385225 0.0028721017 -0.006351583 
   68000    2.6421473  0.023280204    28372.625    28196.273 -0.0012088705 0.0034260998 -0.0066214159 
   69000    2.6497858  0.023926252    28372.625    28587.644 -0.0005650237 0.00055660608 -0.0095095558 
   70000    2.6409292  0.023420517    28372.625    28947.456 -0.0012217583 0.0026251848 -0.0077732659 
   71000    2.6425684  0.023554101    28372.625    29324.628 -0.0026162063 0.0036578739  -0.01015873 
   72000    2.6407612  0.024711178    28372.625     29723.56 0.0014995823  0.001783963 -0.010166191 
   73000    2.6485364  0.024072319    28372.625    30133.809 0.0028820046 -0.00028934986 -0.010053657 
   74000    2.6516499  0.023051251    28372.625    30538.489 0.0013162087 0.0012078748 -0.0094164911 
   75000    2.6511357  0.023267635    28372.625    30908.174  0.001637572 4.2867282e-05  -0.01003476 
   76000    2.6491261  0.023908582    28372.625    31274.828 0.0027986649 0.00092316141 -0.0072750126 
   77000    2.6485334  0.023831607    28372.625     31618.85 0.0041097093  0.005070871 -0.0078015452 
   78000    2.6476826  0.023998712    28372.625    31943.152 0.0048315291 0.00071323098 -0.0066569179 
   79000    2.6395653   0.02406964    28372.625    32202.013 0.0036939023 0.00093909916 -0.0061999402 
   80000     2.638188  0.023411934    28372.625    32479.493 0.0048737645 0.00029968182 -0.0042341798 
   81000    2.6431224  0.023901723    28372.625    32743.249 0.0040502986 -0.0028733954 -0.001889314 
   82000    2.6410008  0.023924068    28372.625    33045.595 0.0022005263 -0.00090736659 -0.0034590015 
   83000    2.6383378  0.025006489    28372.625    33326.967 0.0032744258 -0.0017637496 -0.00018199827 
   84000    2.6436279  0.023896669    28372.625    33614.195 0.0027591237 0.0026431603 0.0010170394 
   85000    2.6492475  0.023202918    28372.625    33966.036 0.0055984013 -0.00020583628 -0.0012915346 
   86000    2.6370835  0.024837729    28372.625    34235.504 0.0074327658 0.0035787817 0.0010492367 
   87000    2.6466731  0.024157116    28372.625    34477.162 0.0071771783 0.0038183223 0.0034028558 
   88000    2.6436884  0.024203455    28372.625    34766.704 0.0066849922 0.0047151209 0.00064310982 
   89000    2.6239587  0.025098243    28372.625    35082.799 0.0038502601  0.001711038 -5.8889828e-05 
   90000    2.6349719  0.023862786    28372.625    35399.672 0.0033121122 0.0042170409 0.0025348771 
   91000    2.6447032  0.023531053    28372.625    35747.906  0.001097662 0.0050674107 0.0033181409 
   92000    2.6449932  0.023481388    28372.625     36086.94 -0.00012690621 0.0019465435 0.0026888587 
   93000    2.6259347   0.02402207    28372.625    36380.842 0.0027480628 0.0019000296 0.0023265827 
   94000     2.640933  0.023415438    28372.625    36707.304 0.00073524464 0.0039461282 0.0024345906 
   95000    2.6334761  0.023478659    28372.625    37066.286 0.00031986863 0.0069805702  0.002800678 
   96000    2.6430095  0.023392578    28372.625    37464.222 5.325456e-05 0.0026768951 0.0016591391 
   97000    2.6328573  0.024147204    28372.625    37910.902 -0.0045131363 0.00014592337 -0.00097891406 
   98000    2.6326332  0.024356252    28372.625    38357.251 -0.0041354768 -0.0013116679 -0.00072714495 
   99000    2.6304258  0.023600771    28372.625    38789.479 -0.0013337146 -0.0019042671 -0.0010988535 
  100000    2.6397121  0.023829412    28372.625    39238.858 -0.0023149558 -0.0025948876 0.0019603789 
  101000     2.655508  0.024059579    28372.625    39722.766 0.0013484673 -0.004171824 -0.001637024 
  102000    2.6358586  0.024733491    28372.625    40180.367 0.0015613977 -0.0023359689 -0.0024803505 
  103000    2.6435354  0.023407066    28372.625    40607.808 0.0028239357 -0.0014694908 -0.0035123698 
  104000    2.6457786  0.023624042    28372.625    41049.684 0.0035382061 -0.00083039585 -0.0002010651 
  105000    2.6486181  0.023378909    28372.625    41546.804 0.0036746563 0.00038898206 -0.00015606553 
  106000    2.6360426  0.025004745    28372.625     42044.28 0.0048695324 0.00038955402 -0.0014943479 
  107000    2.6434039  0.023429485    28372.625    42521.581 0.0041391947 0.0021466889 -0.00039976403 
  108000    2.6351561  0.024356187    28372.625    43011.999 0.0025306493  0.003004568 0.00031288913 
  109000    2.6364402  0.023909792    28372.625    43549.775 -0.00048788428 0.0013281778 0.00084508645 
  110000    2.6508992  0.023678423    28372.625    44065.076 -0.00036031722 -1.1163641e-05 0.0018707649 
  111000    2.6376596  0.023828077    28372.625    44583.382 0.0026685336 -0.00097156494 0.0031284628 
  112000    2.6424667  0.023885767    28372.625    45123.636 0.0030160147 -0.0016250297 0.0031973705 
  113000    2.6387006  0.023946721    28372.625    45654.584 -0.00018072071 0.00040126999 0.0031720316 
  114000    2.6510889   0.02402998    28372.625    46132.299 0.0037633141 0.0048556543 0.0049556295 
  115000    2.6537758  0.023572668    28372.625    46583.187  0.001160966 0.0033401269 0.0012430792 
  116000    2.6362546  0.024337403    28372.625    47037.927 0.0017494484 0.0011062121 0.0020270781 
  117000    2.6398555  0.023606486    28372.625    47455.091 0.0020965848 8.9808243e-05 0.0015905799 
  118000     2.644068  0.023087382    28372.625    47895.416 0.0042102979 -0.00068005938 0.00031385554 
  119000    2.6421311  0.023211974    28372.625    48352.911 0.0017228773 -0.00086080491 0.0010768972 
  120000    2.6542238  0.023676084    28372.625    48821.897 0.0017035948 0.0013411977 0.0011534139 
  121000    2.6445219  0.024005105    28372.625    49280.471 0.00055090338 0.0016907915 -0.0024314324 
  122000    2.6468561  0.022993805    28372.625    49745.644  0.006462915 0.0046297517 0.00031428654 
  123000    2.6365116  0.024355443    28372.625    50215.315 0.0045577663 0.0031310298 -0.0017439442 
  124000     2.634871  0.023243768    28372.625     50738.04 0.0030804226 0.00087363312 -0.0014114983 
  125000    2.6479156  0.023343171    28372.625    51297.929 0.0039664892  0.001590807 -0.0011677498 
  126000    2.6399617  0.023508735    28372.625    51820.375 0.0036952555 0.0041841853 -0.0027416121 
  127000    2.6335962  0.024428377    28372.625    52349.262 0.0056210534 0.0037457298 -0.0046486532 
  128000    2.6447854  0.023944165    28372.625    52942.822 0.0048712882 0.0047966743 -0.0072825381 
  129000    2.6410848   0.02397399    28372.625    53589.286 0.0031112137 0.0050295981 -0.0051905074 
  130000      2.63606  0.023256651    28372.625    54213.619 0.00080881811 0.0034161312 -0.0045232177 
  131000    2.6518326   0.02315705    28372.625    54790.731 -0.0001331113 0.0062318525 -0.0016351051 
  132000    2.6465502  0.023342517    28372.625    55333.206 -0.00080573884 0.0053560851 -0.00071286782 
  133000    2.6411707  0.023504623    28372.625    55812.801 -0.0015417277 0.0023379102 -0.00065695343 
  134000    2.6359503  0.023859229    28372.625    56243.561 -0.00031462126 -0.00024883675 0.0017629254 
  135000    2.6394012  0.024337535    28372.625    56645.463 0.0047199341 -0.0011248294 0.0021554372 
  136000    2.6532439  0.023948782    28372.625     57051.26  0.004193758 -0.0018536846 0.0032410134 
  137000    2.6345894  0.023380072    28372.625    57476.005 0.0050361978 -0.0015214295 0.0036763993 
  138000    2.6403998  0.023486963    28372.625    57877.661 0.0010878809 -0.00057709837 0.0043389903 
  139000    2.6350987  0.023402399    28372.625    58258.716 -0.00018619893 -0.0024947688 0.0035070708 
  140000      2.63984   0.02391507    28372.625    58662.992 0.0019121315 -0.002853757 0.00047878684 
  141000    2.6294768  0.023861685    28372.625    59085.092 0.0018421729 -0.0013487893 0.0021165392 
  142000    2.6463039  0.023628252    28372.625    59483.294  0.002016487 -0.0023191075 -0.00075465141 
  143000    2.6224009  0.024394457    28372.625    59873.269 0.0012189718 0.00010892351 -0.0044706982 
  144000    2.6395164  0.023599246    28372.625    60293.455 0.00030640801 -0.00048175533 -0.0026316575 
  145000    2.6423269  0.023498367    28372.625    60700.467  -0.00103361 0.00029934319 -0.0044405899 
  146000    2.6350377  0.023179647    28372.625    61107.787 -0.0017962948 -0.001863425 -0.0050482063 
  147000    2.6462485  0.023749202    28372.625    61510.865 0.00059214637 -0.0033301443 -0.0092736271 
  148000    2.6487935  0.023405247    28372.625    61954.881 -0.002595211 -0.0073614101 -0.0057856056 
  149000    2.6553329  0.023468216    28372.625    62378.292 -0.0031948413 -0.0062364764 -0.0070868053 
  150000    2.6441308  0.023805683    28372.625    62830.187 0.00051110979 -0.010480215 -0.0048003784 
  151000    2.6348308  0.024242892    28372.625    63225.978 0.0001610058 -0.0064967652 -0.0033507344 
  152000    2.6527602  0.023527763    28372.625    63637.539 -0.0010473594 -0.0076034183 -0.0001015319 
  153000    2.6520534  0.023341535    28372.625    64060.802 0.00084077013 -0.0057026817 0.0023125133 
  154000    2.6494999  0.023475131    28372.625    64491.438 0.00090699934 -0.0037337647 0.0022593109 
  155000    2.6425299  0.024002183    28372.625    64944.879 -0.00071691401 -0.0051795038 0.00026366194 
  156000    2.6333005   0.02390613    28372.625    65435.489 -0.0010742928 -0.0031322432 0.00085816132 
  157000    2.6531703  0.024216429    28372.625    65957.655 -0.002891577 -0.0047383516 7.6339621e-05 
  158000    2.6518022  0.023314859    28372.625    66455.183 -0.0004603102 -0.0056141088 -0.0026969709 
  159000    2.6262213  0.024903594    28372.625    66969.362 -0.00094661242 -0.0035198426 -0.0026039866 
  160000    2.6401474   0.02384237    28372.625    67442.038 -0.0029148409 -0.0030433541 -0.0041335784 
  161000    2.6450449  0.024002148    28372.625    67888.328 -0.0058872952 -0.0031087442 -0.0032587057 
  162000    2.6466127  0.023872953    28372.625    68361.665 -0.0036505771 -0.0025896299 -0.0022010524 
  163000    2.6481405  0.023559345    28372.625    68824.783 -0.0049980006 -0.0026306457 -0.00060185967 
  164000    2.6358073  0.024927863    28372.625    69264.854 -0.0073067505 0.0029461212 0.00049678112 
  165000    2.6545986   0.02335664    28372.625    69746.875 -0.0040457178 -0.00058882355 -0.0030429135 
  166000    2.6490076  0.023559136    28372.625    70255.084 -0.0042916063 0.0012769024 -0.00062438362 
  167000    2.6369394  0.024039798    28372.625    70766.054 -0.0066859778 -0.000258095 -0.0043602667 
  168000    2.6318494  0.024334141    28372.625    71309.179 -0.0060468935 -0.0021405631 -0.010365562 
  169000    2.6340717  0.024332242    28372.625    71829.159 -0.00050407909 -0.00013192508 -0.0043141922 
  170000    2.6471937  0.023765495    28372.625    72372.214 -0.0014704498 -0.0017426498 -0.0032623416 
  171000    2.6470059  0.023534443    28372.625    72926.817 -0.0012684778 -0.0022237134 -0.0057128974 
  172000    2.6555558  0.023545584    28372.625    73436.179 0.0011972699 -0.003732499 -0.0024683059 
  173000    2.6490542  0.023247758    28372.625     73935.04 -0.00048561506 -0.0051457325 -0.0016890653 
  174000    2.6473314  0.023382489    28372.625    74403.532 7.1057182e-06 -0.004071872 0.0019349521 
  175000    2.6310005  0.024930149    28372.625    74867.293 0.0014469447 -0.00040606281 0.0040242617 
  176000    2.6562939  0.023220784    28372.625    75408.963 -0.0034193783 -0.0036885842 0.00099366333 
  177000    2.6562617  0.023672913    28372.625     75936.05 -0.0048044405 -0.0049622144 0.0024305622 
  178000    2.6404069  0.023907988    28372.625    76396.487 -0.0046544858 -0.0072413972 0.0027546132 
  179000    2.6402938  0.023319021    28372.625    76824.157 -0.0066431731 -0.0076532058 0.0043225598 
  180000     2.638099  0.024170304    28372.625    77279.858 -0.0055170252 -0.0096889485 0.0038389468 
  181000    2.6493656  0.023290676    28372.625    77684.651 -0.0066007825 -0.010427171 0.0028764754 
  182000    2.6378869  0.023180277    28372.625    78082.849 -0.0079634953 -0.0091971799 0.0022476819 
  183000    2.6304613  0.025171966    28372.625    78524.747 -0.0040415636 -0.0085269265  0.006399629 
  184000    2.6477899  0.023973471    28372.625    78934.765 -0.0025672929 -0.0069279191 0.0069385379 
  185000    2.6272514  0.023846168    28372.625    79335.656 0.0028225808 -0.0037905017 0.0054460414 
  186000    2.6388918  0.023261866    28372.625    79754.231 0.0037257182 -0.0037085141 0.0070726829 
  187000    2.6140798  0.025400277    28372.625    80191.185 0.0058699815 -0.00035745228  0.017225646 
  188000    2.6410729  0.023253341    28372.625    80701.068 0.00073838741 -0.0059647184 0.0072617985 
  189000     2.641003  0.024231581    28372.625    81231.058 0.0005486406 -0.0059369796 0.0085591328 
  190000    2.6418686  0.023343462    28372.625    81780.081 0.0013587356 -0.0055738824 0.0063351155 
  191000    2.6436885  0.024306237    28372.625    82353.518 0.0028128677 -0.0017914811  0.006751319 
  192000    2.6403299  0.023190666    28372.625    82885.718   0.00334604 -0.0011273845  0.003516618 
  193000    2.6464949  0.024341364    28372.625    83472.596 0.0018678585 0.0006995238 0.0059054713 
  194000    2.6380266  0.024248611    28372.625    84037.103 0.0058811516 -0.0043379323 0.0070126465 
  195000    2.6425689  0.023312714    28372.625    84539.184  0.004189972 0.0017584131 0.0041994016 
  196000    2.6458556  0.023636054    28372.625    85019.622 0.0071846211 0.0033643235 0.0026338767 
  197000    2.6466539  0.023537767    28372.625    85459.676 0.0075173383  0.001930661 0.0027819426 
  198000    2.6349996  0.024950884    28372.625    85904.344 0.0035609803 0.0020628574 0.00050771828 
  199000    2.6498384   0.02388084    28372.625    86449.654 0.0022535887 0.0026350106 0.00063792753 
  200000    2.6512216  0.023277349    28372.625    87036.563 0.0056270699 0.0021128862 -0.0053150394 
  201000    2.6470766  0.024175622    28372.625    87596.422 0.0045541928 0.0033483365 -0.0068750435 
  202000    2.6420913   0.02351456    28372.625    88160.937 0.00056166459 -0.0022707186 -0.0046297015 
  203000    2.6352924  0.023705684    28372.625    88719.903 -0.00024285754 -0.0014474194 -0.0086791465 
  204000    2.6376557  0.023706943    28372.625    89357.104 0.00034274786 -0.0013965635 -0.005643075 
  205000     2.634188   0.02477041    28372.625    90038.994 -0.0025812266 0.00027259521 -0.0083979368 
  206000    2.6463431  0.023614073    28372.625    90750.604 0.00093029717 0.00060111647 -0.0032900897 
  207000    2.6457726  0.023973129    28372.625    91440.221 -0.0040223907 -0.0030445319 -0.0010907295 
  208000    2.6402427  0.023410704    28372.625     92177.71 -0.0037414109 -0.0040021493 -0.00021012418 
  209000    2.6434435  0.023623768    28372.625    92883.213 -0.0063508302 -0.0053367219 6.9632451e-05 
  210000    2.6344685  0.023083505    28372.625    93551.573 -0.0070209778 -0.0075754195 0.00063295785 
  211000    2.6498422  0.023680739    28372.625    94254.113 -0.0043303643 -0.0043012478 0.0023056589 
  212000    2.6105205  0.026127739    28372.625     95001.53 -0.0015418445 -0.00076362176 0.0059907282 
  213000    2.6327283  0.024741793    28372.625    95644.036 -0.0015105084 -0.002622682  -0.00242188 
  214000     2.641603  0.023669503    28372.625     96213.89 -0.002706344  -0.00235484 0.00048806405 
  215000    2.6395301  0.023646698    28372.625    96760.326 -0.0013494658 -0.0015950169 -0.0015645464 
  216000    2.6451887   0.02318605    28372.625    97345.932 -0.0020305604 -0.0017410966 -0.001158668 
  217000     2.630234  0.024673225    28372.625    97972.808 -0.00090269587 -0.0053153449 0.00047220882 
  218000    2.6445127   0.02360819    28372.625      98617.7 0.00023437812 -0.0020237716 0.00088687267 
  219000    2.6440261  0.023117972    28372.625    99243.113 0.0020762258 0.00098142849 0.0016075915 
  220000    2.6476387  0.023788538    28372.625    99902.623 -0.0018888553  0.002198371 0.00092286455 
  221000    2.6443192  0.023153851    28372.625    100573.96 -0.0031966841 0.0026451022  0.000910778 
  222000    2.6475517  0.024003821    28372.625    101206.71 -0.0024881022 0.0027113426  0.002634663 
  223000    2.6372606  0.024761142    28372.625    101799.27 -0.00022852759   0.00138211 0.0039450612 
  224000    2.6486958  0.023421175    28372.625     102378.2 -0.00015429733 0.0023176235 0.0018432535 
  225000    2.6573298  0.023379606    28372.625    102955.69 -0.0026066763 0.0020949037 0.00071418646 
  226000    2.6520286  0.025239904    28372.625    103473.35 -8.7478506e-05 -0.00020885766 -0.0028215562 
  227000    2.6589773   0.02366017    28372.625    103921.33 0.00063290474 0.00016611811 -0.0017824531 
  228000    2.6275556   0.02533323    28372.625    104332.83 3.2116275e-05 -0.0054083772 -0.001222771 
  229000    2.6234196  0.025558007    28372.625    104678.39 0.0072615469 -0.0072348475 -0.0053683564 
  230000    2.6410911  0.023801329    28372.625       105153  0.001945757 -0.0040778529 0.0025299958 
  231000    2.6489073  0.023995859    28372.625    105606.28 -0.0016389463 -0.0037720739 0.00089565578 
  232000    2.6367802  0.023649185    28372.625    106007.09 -0.0023701997 -0.0026590485 0.0077654165 
  233000    2.6410839  0.025010411    28372.625    106476.82 -0.0044984794 -0.0045718346 0.0053278242 
  234000     2.641239  0.023889704    28372.625    106923.15 -0.0022911413 -0.0034124724 0.0056355151 
  235000    2.6631355  0.023540265    28372.625    107348.76 0.00065832563 -0.00060710943 0.0030504827 
  236000     2.649823  0.023668357    28372.625    107726.51 -0.00020772725 0.0007848191 0.0038709162 
  237000    2.6436392  0.023574163    28372.625    108157.28 0.0010457661 -0.00054508529 -0.00025273677 
  238000    2.6552896  0.023396064    28372.625    108617.86 0.0010352053 -0.00026889576 0.0011044497 
  239000    2.6650601  0.023730025    28372.625     109155.7 0.0015794906 -0.0021206535 -0.0015372949 
  240000     2.626767  0.025474931    28372.625    109741.65 -0.002638303 0.0010137888 -0.0061167838 
  241000    2.6510492  0.023117906    28372.625    110295.16 -0.0015538764 0.00011046618 0.00049081759 
  242000    2.6546399  0.023875695    28372.625    110797.36 -0.00071389056 0.00054149896 0.0008328826 
  243000    2.6648351  0.023169279    28372.625    111366.89 -0.0019036756 -0.0013216513   0.00294701 
  244000    2.6531076  0.023450077    28372.625    111918.35 -0.0025640526 -0.0025046609 -0.0011579081 
  245000    2.6437294  0.023310226    28372.625    112539.94 -0.0012776522 -0.00028001429 0.0032548545 
  246000    2.6423209  0.023947686    28372.625    113120.07 -0.0012917631 -0.0030563519 0.0032633103 
  247000    2.6497075  0.023782494    28372.625    113723.86 -0.0010119476 -0.0037257976 0.0014848458 
  248000    2.6628738  0.023335622    28372.625    114288.98 -0.0015491288 -0.0019269586 0.00081999175 
  249000    2.6523436  0.023517302    28372.625    114869.73  -0.00264516 -0.0022057369 -0.00068533455 
  250000    2.6522398   0.02313162    28372.625    115507.57 -0.0043030071 -0.0024425215 -0.0030034913 
  251000    2.6478103  0.024074043    28372.625    116078.18 0.0019123374 0.0013241767 -0.0055641792 
  252000    2.6399138  0.023420575    28372.625    116747.84 0.0021125489 0.0024450858 -0.0025711637 
  253000    2.6477919  0.023404881    28372.625     117369.1 0.0022669436  0.003550261 -0.0015913613 
  254000    2.6533019  0.023865641    28372.625    117989.13 0.00032205497 0.0041802792 -0.00041626264 
  255000    2.6429208  0.024972217    28372.625    118568.98 0.0033027752 0.0001389601  0.001743336 
  256000    2.6386001  0.024739982    28372.625    119083.27 0.0061714874 0.0048469166 0.00027609767 
  257000    2.6612439  0.023517312    28372.625    119646.77 0.0047780185 0.0011655827 -0.00094973158 
  258000    2.6359656  0.023966865    28372.625    120193.93 0.0051871289 6.5709362e-05 0.0010964227 
  259000    2.6401341  0.023352273    28372.625     120690.2 0.0026607801 -0.0012648772 0.0015953048 
  260000    2.6362362  0.023758932    28372.625    121200.93 0.0023427043 0.00031983488 0.0013909253 
  261000    2.6279687  0.023821628    28372.625    121646.87 0.0025436119 0.00046235568 0.00053354586 
  262000    2.6362633  0.023677139    28372.625    122055.27 -0.001040863 -0.0030940116 0.0015894736 
  263000    2.6417315  0.023270187    28372.625    122468.71 -0.0015993128 -0.0013377547 -0.00028341092 
  264000    2.6414227  0.023814202    28372.625    122925.94 -0.0023311892 -0.0038421878 -0.0017726205 
  265000    2.6364572  0.023160581    28372.625    123372.23 -0.0029259368 -0.0017143465 -0.0014943323 
  266000    2.6408113  0.024903746    28372.625    123823.52 -0.0022501019 -0.0054627352 -0.0055516017 
  267000    2.6414079   0.02357806    28372.625    124309.73 -0.0019284617 -0.0031155695 -0.0058113148 
  268000    2.6409471  0.023742952    28372.625    124811.42 -0.0022014575 -0.0028018371 -0.0029559971 
  269000    2.6585014  0.023162897    28372.625    125329.11 -0.0029305891 -0.0029998938 -0.0044112885 
  270000    2.6482965  0.023602801    28372.625    125830.58 -0.0026156329 -8.8446161e-05 -0.0026790668 
  271000    2.6501064  0.023257363    28372.625    126342.59 0.0021760463 -0.00032767322 0.00068883988 
  272000    2.6460417  0.024114014    28372.625    126741.48 0.0039462384 -0.0018399303 0.0046537238 
  273000     2.651434  0.023207069    28372.625    127130.58 0.0022942626 -0.0011898665 0.0027012679 
  274000    2.6587451  0.023638655    28372.625     127508.4 0.00077015899 -0.0042201507 0.0058310842 
  275000    2.6406706  0.023201088    28372.625    127962.29 -0.0031344419 -0.0031866303 0.0071522112 
  276000    2.6396332  0.023306935    28372.625    128396.55 -0.0025538704 -0.0051132725 0.0089020561 
  277000    2.6300491  0.023670428    28372.625    128855.58 -0.00044968879 -0.0051885161 0.0077911295 
  278000    2.6544835  0.023588673    28372.625    129204.83 0.0013503218 -0.0048981492 0.0054366386 
  279000    2.6360964  0.023466136    28372.625    129416.27 0.0017038853 -0.0002385169  0.006682776 
  280000    2.6485739  0.023203312    28372.625    129653.58 9.5572567e-05 0.0024158659 0.0042888329 
  281000    2.6453184  0.023762659    28372.625    129815.66 0.00085262378 0.0049320402 0.0036106446 
  282000    2.6564954  0.024095819    28372.625     129954.7 -0.00028000759 0.0083637821 0.0003764238 
  283000    2.6423661   0.02360798    28372.625    130143.16 0.0046151821 0.0044778701 0.0016538471 
  284000    2.6590486   0.02327946    28372.625    130324.49 0.0060271655 0.0011151204 0.00030189807 
  285000    2.6408838  0.025188043    28372.625    130431.94 0.0050386854 0.0042834927 0.0001419135 
  286000     2.626187  0.024741194    28372.625    130474.22 -0.0025497966 0.0032589229 -0.00047815639 
  287000    2.6528208  0.023009758    28372.625    130472.79 0.0034251508 0.0071009553 -0.0014877169 
  288000    2.6465221  0.024056593    28372.625    130557.39 -4.1460609e-05 0.0096431613 -0.0031681443 
  289000     2.641817  0.023197426    28372.625    130773.64 0.0028337874 0.0072501504 -0.0052874935 
  290000     2.645668  0.023430497    28372.625    131019.45 0.0034296795 0.0088739337 -0.0035721791 
  291000    2.6414441  0.023424638    28372.625    131309.63 0.0029781272 0.0085524663 0.0021320995 
  292000    2.6397003   0.02370881    28372.625    131548.65 0.0075351116 0.0075347001 0.0012167949 
  293000     2.653889  0.023776423    28372.625    131752.22 0.0046017788  0.010122005 0.0026200951 
  294000    2.6286038   0.02463639    28372.625    131938.57 0.0040676871 0.0021143516 0.0069547434 
  295000    2.6489645  0.024190086    28372.625    132219.15 0.0058779908  0.010432234 0.0076935583 
  296000    2.6445297  0.023821813    28372.625    132478.03 0.0049799228 0.0074361943 0.0035955792 
  297000    2.6304437  0.025647365    28372.625    132741.03  0.003290253  0.004803566 0.0073388422 
  298000    2.6425046  0.023773301    28372.625    133154.93 0.0038863979  0.009070361 0.0054402056 
  299000    2.6541214  0.023365399    28372.625    133698.44 0.0047360142 0.0082965644 0.0037591998 
  300000    2.6562764  0.023092611    28372.625    134250.25 0.0039129509 0.0067536672 0.0012938095 
  301000    2.6444659  0.024902296    28372.625    134805.56 0.0040725278  0.002354686 -0.00060858533 
  302000    2.6440759  0.023463191    28372.625    135370.06 0.0067486734 0.0022530042 0.0055676872 
  303000    2.6476803  0.023116117    28372.625    135976.04 0.0076992816 0.00070282778 0.0047720215 
  304000     2.614024  0.024980431    28372.625    136604.74 0.0056951138 0.0002765247 0.0045086033 
  305000    2.6551919  0.023901072    28372.625    137145.15 0.0018498004 0.0017127331 0.0017679964 
  306000    2.6404114  0.023988224    28372.625    137712.18 0.00049325143 0.00098306998 -0.00035248884 
  307000    2.6483689  0.023267244    28372.625    138367.72 -0.0028141322 0.0010916156 -0.0024641494 
  308000    2.6302504  0.024823707    28372.625    139058.84 -0.00094655751 -0.0014415053 -0.002841699 
  309000    2.6397579  0.023194789    28372.625    139681.34 -0.0049074504 -0.00041702176 -0.0019938111 
  310000     2.630634  0.023609099    28372.625    140290.88 -0.0021379007 -0.0022093652 0.00046439839 
  311000    2.6425938  0.023983691    28372.625    140862.29 -0.0020756502 2.225668e-05 -0.0011866828 
  312000    2.6217717  0.025078868    28372.625    141373.12 -0.0041769512 -0.0042922553 0.0084779028 
  313000    2.6512845   0.02429004    28372.625    141973.93 -0.0037273447 0.00074172066 0.0016949224 
  314000    2.6484848  0.023295228    28372.625    142595.99 -0.0068054298 3.3908068e-05 0.0015576483 
  315000    2.6491503  0.024072687    28372.625    143304.34 -0.0097571553 -0.0018221349  0.006284655 
  316000    2.6466676  0.023153131    28372.625    143925.37 -0.007656345 -0.0023886885 0.0058229456 
  317000    2.6436507  0.023453681    28372.625    144504.79 -0.0081261821 -0.0045451481  0.005392635 
  318000     2.653191  0.023516645    28372.625    145062.95 -0.0078977848 -0.0022825766 0.0057227285 
  319000     2.639875  0.024095975    28372.625    145535.33 -0.0065029397 -0.0019811991 0.0054504461 
  320000     2.636108  0.023260195    28372.625    145992.44 -0.0053537064 -0.0018301031 0.0062519806 
  321000    2.6424006  0.023540863    28372.625    146563.11 -0.0065702842 -0.0029706532 0.0055648307 
  322000    2.6264056  0.024897994    28372.625    147088.31 -0.012363518 -0.00019160924   0.00294957 
  323000    2.6288401  0.023254349    28372.625    147660.13 -0.0070779314 -0.0022534391 0.0025113972 
  324000    2.6356407  0.023932421    28372.625    148241.85 -0.0066699839 -0.0017725998 0.0010642253 
  325000    2.6404481  0.023842447    28372.625    148719.89 -0.0061023698 -0.00062308985 0.00066854771 
  326000    2.6398082  0.024887723    28372.625    149269.03 -0.0048940232 -0.00068869585 -0.0035502752 
  327000    2.6369298  0.024573518    28372.625    149737.44 -0.0016897235 -0.0010596312 -0.004946218 
  328000    2.6138376  0.026005091    28372.625    150094.17 0.0028457638 0.0054509763 -0.0014575478 
  329000    2.6445484  0.025217911    28372.625    150483.91 0.0027750101 0.0025719022 -0.001905114 
  330000    2.6427904  0.023871344    28372.625     150941.7 0.0017494847 0.0013053443 0.00031817253 
  331000    2.6367668  0.023751565    28372.625    151419.68 0.0026156064 0.0021254025 -0.00069879822 
  332000    2.6438134  0.023351613    28372.625    152001.22 0.0018736298 0.00065813494 -7.3424579e-05 
  333000    2.6250077    0.0239584    28372.625    152686.63 0.0025365756 -0.00089527113 0.00075182602 
  334000    2.6440551  0.023961134    28372.625    153350.62  0.001048721 0.00026942145 -0.0011558911 
  335000    2.6324836  0.023341986    28372.625    153977.15  0.003418637   0.00365718 -0.0035743458 
  336000    2.6488956  0.023480042    28372.625    154484.79  0.002391151 0.0012179304 -0.00090262671 
  337000    2.6375099  0.023257296    28372.625    154949.95 0.0028301118 0.0018803664 -0.0040037116 
  338000    2.6331422  0.024731881    28372.625    155408.23 0.0050665012 -0.0018887129 -0.006523594 
  339000    2.6363252  0.023136955    28372.625    155827.38 0.0061437604 -0.0018140693 -0.0032816317 
  340000     2.640539  0.023569859    28372.625    156318.25 0.0051121165 -0.0016282549 -0.0067228037 
  341000    2.6436383  0.023487995    28372.625    156858.52 0.0079677105 -0.0042136887 -0.0058778828 
  342000    2.6349299  0.024275009    28372.625    157440.49 0.0091178318 -0.0022582853 -0.0053081158 
  343000    2.6402775  0.023660979    28372.625    158019.66 0.0088080966 0.00043781906 -0.0044101333 
  344000    2.6430235  0.024318928    28372.625    158595.01 0.0064214452 -0.0022194738 -0.0029505648 
  345000    2.6461507  0.023092419    28372.625    159106.12 0.0037612841 -0.0015665416 -0.0011302271 
  346000    2.6438122  0.023056384    28372.625    159572.67  0.005770886 -0.0011081124 0.00084974732 
  347000    2.6501434  0.023895694    28372.625    160053.37 0.0037467274 -0.00015887323 -0.00062572236 
  348000    2.6436461  0.023122793    28372.625     160670.9 0.0028416913 0.00027236217 -0.002331494 
  349000    2.6580029  0.023451802    28372.625    161229.23  0.003064598 -0.00065686618 -0.004984823 
  350000    2.6455621  0.023153751    28372.625    161775.37 0.0024456816 0.0014673649 -0.0048212999 
  351000    2.6437841  0.023665365    28372.625    162140.19 0.00019957147 0.0011781906 -0.0031631598 
  352000    2.6437277  0.024136186    28372.625    162511.36 2.1248336e-05 0.00084195247 9.6727594e-05 
  353000    2.6533794  0.023696552    28372.625    162891.57 0.00077352053 0.00099770112 0.0010230213 
  354000    2.6385422  0.024033416    28372.625    163307.65 0.0027918807 -0.0013707145 0.0035372134 
  355000    2.6575757  0.023423574    28372.625    163825.81 -0.00036461557 0.0003531261  0.003841123 
  356000     2.643076  0.024356701    28372.625    164240.59 -0.00018494211 -0.0016806748 0.0044100601 
  357000    2.6415009  0.023903899    28372.625    164592.94 0.0020170516 -0.00058621757 0.0021655915 
  358000    2.6398016  0.023488637    28372.625    164891.28 0.00091158098 0.00030720687 0.0056250384 
  359000    2.6499733  0.023173744    28372.625    165081.06 0.00034586064 0.0018780522 0.0051168944 
  360000    2.6307198  0.023265971    28372.625    165244.55 -0.00018753604 0.0017474131 0.0037544929 
  361000    2.6424638  0.023115228    28372.625    165443.01 0.0010313443 -0.0011820428 0.0015685623 
  362000    2.6372309  0.024016693    28372.625    165751.97 0.0012398784 -0.0027181149 0.0021182621 
  363000    2.6322416  0.023231757    28372.625    166163.36 0.0058458569 0.00013540606  0.001460763 
  364000    2.6437595  0.023121639    28372.625    166664.99 0.0050377771 -5.0591075e-05 0.0018726223 
  365000    2.6445382  0.023866587    28372.625    167263.49 0.0056913232 -0.0025248506 0.0021059963 
  366000     2.649678  0.023725811    28372.625    167837.57 0.0027774216 0.0020783237 0.0048654838 
  367000    2.6436678  0.024059017    28372.625    168391.61 0.0040302184 -0.00047704341 0.0069781686 
  368000    2.6456161  0.023715251    28372.625    168869.44 0.0039164571 -0.0019457899 0.0069481269 
  369000     2.639254  0.023346752    28372.625    169372.95 0.0036575222 -0.0016739266 0.0051072053 
  370000    2.6495388  0.024031809    28372.625     169900.7 0.0015973209 -0.002815908 0.0022826468 
  371000    2.6582853  0.023695176    28372.625    170492.61 0.0057617169 -0.0022772886  0.001142922 
  372000    2.6446582  0.023715259    28372.625    171062.18 0.0051427004  -0.00408865 0.0011336385 
  373000    2.6562723  0.023679741    28372.625    171764.54 0.0031092666 -0.0049661878 0.0020991638 
  374000    2.6420778  0.023553238    28372.625    172483.45 0.0016703584 -0.0056190928 -0.00086852683 
  375000    2.6360951  0.024365854    28372.625    173197.85 0.0027369005 -0.0050159244 -0.00040421566 
  376000    2.6518111  0.023233851    28372.625    173861.09 0.0048959952 -0.0053126487 -0.004146005 
  377000    2.6496662  0.023513129    28372.625    174446.87 0.0044315485 -0.0071755844 -0.0017034464 
  378000    2.6483356  0.023832895    28372.625    174943.62 0.0041518072 -0.0053717913 -0.00031423827 
  379000    2.6540852   0.02304326    28372.625    175497.69 0.0014375407 -0.0023760572 -0.0018569077 
  380000    2.6529988  0.023410986    28372.625    176146.65 0.0005966382 -0.0033270157 -0.003934894 
  381000    2.6368156  0.024176332    28372.625    176788.71 0.0017093653 -0.0043211286 -0.002966862 
  382000    2.6584498  0.023470138    28372.625    177391.48 0.0046147603 -0.0040821734 -0.0060076449 
  383000     2.624418  0.024436736    28372.625    177917.67 0.0020056394 -0.0025140592 0.00024528887 
  384000    2.6401351   0.02341262    28372.625    178366.71 -0.00012291465 -0.0022622676 -0.0022896845 
  385000    2.6432687  0.023266749    28372.625    178698.37 0.00026650153 -0.0053331862 0.0021259015 
  386000    2.6444625  0.024160025    28372.625    178962.37 0.0029141123 -0.001804167 0.0036578713 
  387000    2.6500294  0.023931623    28372.625    179267.81  0.001633236 -0.0031844126 -0.0030431698 
  388000    2.6611677  0.023103638    28372.625    179651.57 0.0037741872 -0.00016022213 0.0036628224 
  389000    2.6480282  0.023120517    28372.625    179997.05 0.0015895193 0.0008752332 0.0031185432 
  390000    2.6585562  0.023296122    28372.625    180252.62 -6.4240464e-05 0.0031560347 0.0018717383 
  391000    2.6467126  0.023246052    28372.625    180564.24 -0.0031211154 0.0025364993 -0.00064922039 
  392000    2.6273512  0.025644421    28372.625    180861.02 -0.0062206705 0.0046815429 -0.0062424957 
  393000    2.6429291  0.023780086    28372.625    181120.85 -0.0048814561 0.00062010684 0.0034473793 
  394000    2.6384408  0.023430892    28372.625    181268.41 -0.0025688197 0.00033676549 0.0013531163 
  395000    2.6370779  0.024008424    28372.625    181373.58 -0.0029549191 0.00065818436 0.0010798027 
  396000    2.6394061  0.023245983    28372.625    181528.04  0.000255752 0.0007140343 -0.00053028514 
  397000    2.6510776  0.023356655    28372.625    181663.59 0.0016102187 0.00089285471 -0.0038980291 
  398000    2.6379958  0.023334467    28372.625    181844.57 0.0013123786 0.0029079499 -0.001254442 
  399000    2.6428216  0.023961962    28372.625    181988.64 -0.00088999713  0.001685821 -0.0019303123 
  400000    2.6462248  0.023509218    28372.625    182120.64 0.0027202744 0.0044345242 -0.0017062714 
  401000    2.6438418  0.023581525    28372.625    182265.28 0.0053273247 0.0049944542 0.0024640651 
  402000    2.6412668  0.023306905    28372.625    182476.41 0.0044234623 0.0060014283 0.0051255391 
  403000    2.6445502  0.024058072    28372.625    182738.56 0.0042374823 0.0053179204 0.0048460125 
  404000    2.6344502  0.023244219    28372.625    182969.67 0.0017874776 0.0064541433 9.1846043e-05 
  405000    2.6352027  0.024129742    28372.625    183209.34 0.0010615296 0.0084222923 -0.0011035046 
  406000    2.6635531  0.023123462    28372.625    183399.98 0.0028273281 0.0079461498 -0.0038032059 
  407000    2.6389413  0.023639457    28372.625    183523.27 0.0033762254 0.0097977731 -0.003909952 
  408000    2.6443214  0.023806699    28372.625    183731.59   0.00216617 0.0087012015 -0.0041658659 
  409000    2.6475484  0.023648723    28372.625     183951.2 0.0024941258 0.0099284127 -0.0041754478 
  410000    2.6494133   0.02357099    28372.625    184099.07 0.0043090391 0.0082968045 -0.0054179792 
  411000     2.657295  0.023874071    28372.625    184272.09  0.002231587 0.0057848944 -0.0047411304 
  412000    2.6552624  0.023177622    28372.625     184453.2 0.0048778598   0.00659808 -0.0063507659 
  413000    2.6367933  0.023586565    28372.625    184708.21 0.0048255723  0.004734592 -0.0050139893 
  414000    2.6443045  0.023142006    28372.625    185106.62  0.003688455 0.0058208797 -0.0025944552 
  415000    2.6463145  0.023314056    28372.625    185578.88 0.0039736876 -9.8369681e-05 -0.0012864101 
  416000    2.6507773  0.024126796    28372.625    186011.79 -0.0021990467 0.0019494763 0.00085906524 
  417000    2.6501118  0.024006117    28372.625    186374.66 -0.0030148467 0.0023519587 -0.0035648289 
  418000    2.6365217  0.023490454    28372.625    186886.76 -0.003211758 0.0011736899 -0.0047513871 
  419000    2.6477467  0.023381517    28372.625    187361.49 -0.005554963 0.0026787767 -0.0079135418 
  420000    2.6456292  0.023324559    28372.625     187768.5 -0.0060074584 0.0041247661 -0.008170976 
  421000    2.6365814  0.023851781    28372.625    188141.87 -0.0045152419 0.0015642519 -0.0080960282 
  422000    2.6496388  0.023438218    28372.625    188595.14 -0.005449461 0.0016704323 -0.0063606042 
  423000    2.6585873  0.023219544    28372.625    189114.86 -0.0040679664 -0.0030678766 -0.0073310141 
  424000    2.6548428  0.023422386    28372.625    189580.81 -0.0045833137 -0.00027398472 -0.0060844642 
  425000    2.6451164  0.024812906    28372.625    189999.23 -0.0081133428 0.00037568112 -0.0086006507 
  426000    2.6440664  0.023962498    28372.625    190396.09 -0.006406555 0.00017535814 -0.0054496784 
  427000    2.6371566  0.024536994    28372.625    190766.84 -0.0064345805 -0.0034252639 -0.003127612 
  428000    2.6496108  0.023192996    28372.625    191066.98 -0.0065435401 -0.0045415964 -0.0025391167 
  429000    2.6577809  0.023197201    28372.625    191460.93 -0.0049861738 -0.0011909501 -0.0029347115 
  430000    2.6317624   0.02429083    28372.625    192055.32 -0.0063888409 -0.0012346748 -0.0043712785 
  431000    2.6434509  0.023511442    28372.625    192686.71 -0.003640265 -0.0020816247 -0.0031608103 
  432000    2.6381751  0.023759709    28372.625    193293.51 -0.000407854 -0.00068755119 -0.0022035569 
  433000    2.6372918   0.02441277    28372.625    193950.98 0.0032047552 -0.004756341 -0.0027632777 
  434000    2.6411022  0.024087798    28372.625    194698.74 0.0017468032 0.0019270216 -0.0038169664 
  435000    2.6414332   0.02347836    28372.625    195472.69  0.002031325 -0.0024084839 -0.0032176741 
  436000    2.6339806   0.02327016    28372.625    196160.39 0.0024112949 -0.0013033526 0.0030472923 
  437000    2.6489428  0.024366672    28372.625    196840.57 -0.00091774477 0.0017940063 0.0057444465 
  438000     2.621274  0.025579051    28372.625    197521.05 -0.0037416416 0.0041465845 0.0064416538 
  439000    2.6325643  0.024602939    28372.625    198186.72 -0.0053084042 0.0016977826 0.0037122197 
  440000    2.6449072  0.023425559    28372.625    198943.58 -0.0044443973 -0.00026481532 -0.00061044317 
  441000    2.6543784  0.024785244    28372.625    199580.38 -0.0013445467 -0.00048739078 0.0014037325 
  442000    2.6541113  0.023676943    28372.625     200136.9 0.0045037558 -0.00066357453 -0.00078335942 
  443000    2.6376608  0.023712094    28372.625    200537.93 0.0045441551 0.0019669511 -0.00025598283 
  444000    2.6461365  0.023657926    28372.625    200857.34 0.0044052013 0.0014839887 -0.00018361595 
  445000    2.6596772  0.023206582    28372.625    201206.51 0.0012747312 -0.00025843609 0.00078317049 
  446000    2.6283856  0.024730262    28372.625    201420.62 0.0025351801 -0.0011594837 -0.0023663885 
  447000    2.6418679  0.023242344    28372.625    201611.27 0.0040480441 -0.0027517943 0.00066983048 
  448000    2.6520337  0.023139941    28372.625    201863.76 0.0052023962 -0.0038545125 0.00091517621 
  449000    2.6445943  0.023396059    28372.625    202173.84  0.006651229 -0.0025249998 -0.0040288702 
  450000    2.6488887   0.02407236    28372.625    202487.22 0.0064504949 0.00035732569 -0.0047101416 
  451000    2.6591352  0.023907265    28372.625    202765.53 0.0072966137 -0.0026010202 -0.0047918056 
  452000    2.6400875  0.023625687    28372.625    203043.19 0.0088073148 -0.0030472911 -0.0033635295 
  453000    2.6528485  0.023777664    28372.625    203386.75 0.0077881312 -0.0035481244 -5.2082634e-05 
  454000    2.6541834  0.023704214    28372.625    203846.44 0.0067997465 -0.001109599 -0.00011740442 
  455000    2.6343969  0.023339426    28372.625     204360.1 0.0094168857 -0.003691216 0.0004114062 
  456000    2.6235517  0.023989959    28372.625    204920.52 0.0090680411 -0.002610724 -0.00081968344 
  457000     2.645668  0.023344265    28372.625    205398.98 0.0054582295 -0.0017794746  0.001344841 
  458000    2.6472078  0.023411975    28372.625    205890.11 0.0087198092 -0.00026429621 0.0017935545 
  459000    2.6387955  0.023779157    28372.625    206385.68 0.0055931115 -0.0016160794 0.0001961098 
  460000    2.6292873  0.023761235    28372.625    206884.68 0.0043850383 -0.0043794709 0.0027897044 
  461000    2.6386296  0.023229178    28372.625    207314.23 0.0061815317 -0.0045835018 0.0028033373 
  462000    2.6126489  0.026348648    28372.625     207667.9 0.0067461247 -0.010474583 0.0034507605 
  463000    2.6265587  0.025085637    28372.625    208041.49 0.0022177882 -0.0015918928  0.003209516 
  464000    2.6475946  0.023376187    28372.625     208331.2 0.0014994267 -0.0034028679 0.0019175808 
  465000     2.642016  0.023495987    28372.625    208656.94 0.0020181034 -0.0024802666 -0.00039090512 
  466000     2.646115  0.023831877    28372.625     208975.1 -9.7267765e-05 -0.0020562738 0.0011922829 
  467000    2.6496079  0.023371374    28372.625    209365.34 0.0017185009 -0.0023680931 0.0027516992 
  468000    2.6338567  0.024901702    28372.625    209796.19 0.00082241961 -0.0012037366 0.0023229176 
  469000    2.6388918   0.02360245    28372.625    210203.52 0.0006417961 -0.0053286921 0.0028073186 
  470000    2.6392372  0.023698782    28372.625    210621.15 -0.00024382674 -0.0021395948 0.0037163148 
  471000    2.6460633  0.023290658    28372.625     211010.1 -0.0011687856 -0.00078089749 0.0032805852 
  472000    2.6441852  0.024680571    28372.625    211473.08 0.0014164004 -0.0012060984 0.0018278732 
  473000    2.6453209  0.023616619    28372.625     211881.8 -0.00067967471 0.00021300317 0.0056246949 
  474000    2.6353745  0.024325966    28372.625    212351.43 0.0007807485 -0.0013493651 0.0077983486 
  475000    2.6403421  0.023821111    28372.625    212762.11 -0.0037569834 -0.0017705988  0.006860107 
  476000    2.6497997  0.023258526    28372.625    213210.53 -0.0021948311 -0.0021124809   0.00610805 
  477000    2.6346737  0.023772154    28372.625    213663.95 0.00029778362 -0.0037876683  0.006150552 
  478000    2.6444947  0.023816814    28372.625    214159.93  -0.00309313 -0.0041101124 0.0055005838 
  479000    2.6323915  0.024155348    28372.625    214569.99 -0.00077143053 -0.0031565106  0.004983844 
  480000    2.6513556  0.023452374    28372.625    214926.24 -0.00042274966 -0.0020312791 0.0040672729 
  481000    2.6416462   0.02311833    28372.625    215367.88 0.00064712429 -0.00090440425 0.0075849841 
  482000    2.6502803  0.023950528    28372.625    215753.93 0.0012738399 -0.00079861725 0.0071248667 
  483000    2.6471587  0.023719576    28372.625     216166.4 0.0021117046 -0.0025416954 0.0058071953 
  484000    2.6476537  0.023901938    28372.625    216715.37 0.0015088662 -0.0033142652 0.0072245234 
  485000    2.6423258  0.024277474    28372.625    217292.73 0.0028880621 -0.003209162  0.005495845 
  486000    2.6445343  0.023331501    28372.625     217906.5 0.0044693222 -0.0028033572 0.0023958971 
  487000    2.6471528  0.023948851    28372.625    218477.64 0.0037830558 -0.0030897094 0.00095166236 
  488000    2.6574111  0.023569448    28372.625     219058.1 0.0024328929 -0.0056213039  0.001196051 
  489000    2.6495711  0.023572971    28372.625    219754.05 0.0022080205 -0.0021463792 -0.002763299 
  490000    2.6361766  0.024075799    28372.625    220423.62 -0.00064268973 -0.0051038784 -0.004979039 
  491000    2.6495396  0.023874084    28372.625    221108.07 0.00059879987 -0.0035232386 -0.00075028937 
  492000    2.6441929   0.02338673    28372.625    221773.62 0.0011441889 0.00058889115 -0.001447298 
  493000    2.6340334  0.024086507    28372.625    222558.03 -0.00044853327 -0.0013374429 0.0014367486 
  494000    2.6345653     0.023929    28372.625    223300.79 -0.00016645643 0.00074791997 0.0010946383 
  495000    2.6403957  0.024025812    28372.625    223763.38 0.0050812773 0.0014813642 -0.0021287138 
  496000    2.6472367  0.023635476    28372.625    224061.56 0.0080242034 0.0039572306 -0.0035754052 
  497000    2.6421631  0.023207284    28372.625    224244.56 0.0073963201 0.0031139726 -0.0032967651 
  498000    2.6415922  0.023325761    28372.625    224447.31 0.0069162498 0.0016882612 -0.003362712 
  499000    2.6452031  0.023639392    28372.625     224726.4 0.0073668138 -0.00054932318 -0.0061511724 
  500000    2.6574899  0.023656207    28372.625    225003.62 0.0029921443 -0.0026474719 -0.0045056393 
  501000    2.6445098  0.023623756    28372.625    225351.93 0.0021454112 -0.0003269986 -0.0023174225 
  502000     2.642017  0.023620253    28372.625    225771.93  0.006784036 0.00016095368 -0.0033569499 
  503000    2.6527853  0.024312716    28372.625    226203.66 0.0059853934 0.00091079654 -0.0056309396 
  504000    2.6255104  0.025800945    28372.625    226659.98 0.0057058128 0.0027529643 -0.003162269 
  505000    2.6598628  0.024647765    28372.625    226979.31  0.010536937 0.0019599456 -0.0061095565 
  506000    2.6545485  0.024123885    28372.625    227361.93 0.0061882181 0.00039642618 -0.0031779444 
  507000     2.648053  0.023956517    28372.625    227771.22 0.0090268252 0.00051949241 -0.0037462185 
  508000    2.6563189  0.023660407    28372.625    228049.83 0.0066026473 -0.00028136791 0.00072188267 
  509000    2.6467817   0.02394343    28372.625    228238.14 0.0079504751 0.0034075659 0.00075294814 
  510000    2.6506279  0.023796322    28372.625    228317.96 0.0098929393 -0.0024128878 0.0025310773 
  511000    2.6440896  0.023562038    28372.625    228289.36 0.0098378653 -0.0025366258 0.00077372109 
  512000    2.6609935  0.023433642    28372.625    228257.96 0.0062509965 -0.0051860908 0.00028667945 
  513000    2.6490217   0.02311409    28372.625    228237.79 0.0075577069 -0.0056095229 -0.0037991336 
  514000    2.6438083  0.024106184    28372.625    228284.28 0.0038844694 -0.0018855212 -0.0043925856 
  515000    2.6422089  0.023449005    28372.625    228391.15 0.0066472522 -0.002935144 -0.002841687 
  516000    2.6493894  0.023672411    28372.625     228507.2 0.0075892753 -0.0044406872 -0.0053876437 
  517000     2.645004  0.024197289    28372.625    228696.03 0.0066186056 -0.0028517781 -0.0032639883 
  518000    2.6394626  0.023883101    28372.625    228813.55  0.007204167 -0.0004831675 0.00010924736 
  519000    2.6489496  0.023484949    28372.625     228869.3 0.0078415508 -0.0013297382 0.0013048974 
  520000    2.6515283  0.023277142    28372.625    228918.34 0.0050501763 -0.0024116295 0.00051636574 
  521000    2.6557265  0.023450159    28372.625    228969.81 0.0060281409 -0.00083862311  0.001941611 
  522000    2.6495741  0.023549992    28372.625     228964.6 0.0050421749 -0.00053961035 0.00066197389 
  523000    2.6602071  0.023510108    28372.625    228850.44 0.0032747038 -0.00025948054 -0.00061248735 
  524000    2.6490763  0.023565846    28372.625    228774.53 -0.00018984149 -0.0022335367 0.0011089178 
  525000    2.6476943  0.024368441    28372.625    228784.53 -0.00057308355 0.0050236181  0.002440358 
  526000    2.6495603  0.024181382    28372.625     228880.1 -0.0028015005 0.0031632723 0.0015126201 
  527000    2.6499939  0.023629477    28372.625    229084.48 0.00034491699 0.0040215585 0.00051306526 
  528000    2.6304424  0.024051331    28372.625    229410.53 -0.00062781273 0.0048780534 0.0038740688 
  529000    2.6389573  0.024631076    28372.625    229829.71 -0.0014617796 0.0047856979 0.0014811631 
  530000     2.648618  0.023148425    28372.625    230322.22 -7.1357817e-05 0.0038002022 0.0016346281 
  531000    2.6476962   0.02337048    28372.625    230809.47 0.0014034863 0.0050380094 0.0028198191 
  532000     2.634297  0.025483472    28372.625    231173.97 -0.0039159731 0.0059975906 -0.00060439818 
  533000    2.6572558  0.024512845    28372.625     231551.6 -0.0027257358 0.0019523822 0.00021988097 
  534000    2.6505944  0.024693305    28372.625    232008.14 -0.0068895927 0.0026161311 0.00091191407 
  535000    2.6373462  0.024338124    28372.625    232491.78 -0.011253217 0.0017832731 0.0015208119 
  536000    2.6517874  0.023333856    28372.625    233067.41 -0.0057606416  0.005457335 -0.0010574294 
  537000    2.6606764  0.023458838    28372.625    233691.15 -0.0059208688 0.0081510602 -0.0013204787 
  538000    2.6344001  0.024576927    28372.625     234397.2 -0.007220725 0.0044783623 -0.00039197391 
  539000    2.6564879  0.023687896    28372.625    235018.67 -0.001673576 0.0059953383 -0.0014543726 
  540000    2.6378753  0.024266494    28372.625     235507.9 -0.0023554997 0.0046965167 -0.00073729086 
  541000    2.6534819  0.023000524    28372.625    235971.85 -0.0036119763 0.0060095767 -0.00022845594 
  542000    2.6366208  0.024588683    28372.625    236286.11 -0.0059088504 0.0031181097 -0.0037859645 
  543000    2.6363812  0.023091102    28372.625    236367.43 -0.00046510602 0.0021274997 -0.0038493474 
  544000     2.640739   0.02316894    28372.625    236441.85 0.00054841859  0.003505601 -0.0043529403 
  545000    2.6442671  0.023356528    28372.625    236444.94 0.0010395698 -0.0011366501 -0.0040948299 
  546000    2.6487526  0.023980489    28372.625    236555.95 -0.0031104957 -0.00056579628 -0.0053715116 
  547000    2.6438453  0.023578338    28372.625    236711.76 -0.0014573836 -0.0048411812 -0.0068739449 
  548000    2.6428045  0.023764225    28372.625    237048.43 -0.00085175576 -0.0029340198 -0.005607688 
  549000    2.6429568  0.025355212    28372.625    237489.33 0.0028825607 4.3319295e-06 -0.0080285605 
  550000    2.6505995  0.023277189    28372.625    237915.07 0.00018909685 -0.0033580933 -0.0057206459 
  551000    2.6577669  0.023302485    28372.625    238428.05  0.001991647 -0.003283705 -0.0040004057 
  552000    2.6402416   0.02354193    28372.625    239094.51 -0.0018935413 -0.0059222138 -0.0014377367 
  553000    2.6340924  0.023928517    28372.625    239719.05 -0.0042322232 -0.0048038765 -0.0036716159 
  554000    2.6400571  0.023080703    28372.625    240342.61 -0.0047803963 -0.0025654009 -0.0023234266 
  555000    2.6426957  0.023116436    28372.625    240932.16 -0.0051888505 -0.0053509144  0.001571558 
  556000    2.6377198  0.024037061    28372.625     241506.8 -0.0061207661 -0.004725553 0.00060204657 
  557000     2.653025  0.023174393    28372.625    242099.99 -0.0061511691 -0.0080735751 -0.0026368367 
  558000    2.6526215  0.023680008    28372.625    242711.97 -0.0053921841  -0.00687272 -0.00032724133 
  559000    2.6434891   0.02379139    28372.625    243305.54 -0.007587213 -0.0057090429 -0.00073370631 
  560000    2.6473246  0.023248662    28372.625    244011.32 -0.0067093977 -0.0040781007 0.0013786934 
  561000    2.6336024  0.024277309    28372.625    244808.26 -0.0050413518 -0.007140774 0.00039586822 
  562000    2.6429358  0.023329455    28372.625    245668.18 -0.0019055629 -0.0047075236 0.0020122833 
  563000    2.6405979  0.023171474    28372.625    246410.84 -0.00096155361 -0.0028069779 0.00040377778 
  564000    2.6352932  0.023381696    28372.625    247089.24 -0.0021644645 -2.0465774e-05 0.0024422919 
  565000     2.654008  0.023733644    28372.625    247819.71  0.001145443 -0.0015351272 0.0045114284 
  566000    2.6299254   0.02423395    28372.625     248398.5  0.005511814 0.0016699211 0.0033207667 
  567000    2.6472509  0.023981048    28372.625     249006.3   0.00677983 -0.00055385171 -0.0020010871 
  568000    2.6431391  0.023652477    28372.625     249679.1 0.0083695817 0.00087307447 -0.00096578406 
  569000     2.637253  0.023358561    28372.625    250407.07 0.0028688228 -0.00081875005 -0.0054361666 
  570000    2.6550913   0.02390899    28372.625     251261.6 0.0024240043 -0.0015049989 -0.0054725389 
  571000    2.6481946    0.0236498    28372.625    252080.99 0.00018632894 -0.0011248858 -0.006650453 
  572000    2.6305282  0.024493843    28372.625    252730.06 -6.5102549e-05 -0.0027107748 -0.0039291949 
  573000    2.6402877  0.023870589    28372.625    253296.46 -0.00067393037 -0.00065040169 -0.0036535911 
  574000     2.646062  0.023740298    28372.625    253877.55 -0.0027030983 -0.0011590916 -0.00074064571 
  575000    2.6310173   0.02479463    28372.625    254461.95 -0.001165952 -0.00050677642 -0.0030520263 
  576000    2.6433589  0.025049141    28372.625    254965.19 0.0024607646 -0.0033145494 -0.00015251228 
  577000    2.6468357  0.023686426    28372.625    255452.59 -0.0006748703 0.00057871756 -0.00027598514 
  578000    2.6546187  0.023443364    28372.625    255905.07 0.0018440993 0.0019209063 0.0013131147 
  579000    2.6370612  0.023623976    28372.625    256282.63 9.6864871e-06 0.0047477199 -0.00094684812 
  580000    2.6506377  0.023628548    28372.625    256642.69 0.0016932508 0.0012155053 -0.0012847481 
  581000     2.629655  0.024118929    28372.625    256949.56 -0.0024532012 0.0043946501 0.00035656926 
  582000    2.6404011  0.023537849    28372.625    257177.22 0.0030052843 0.0031081023 -0.00056546351 
  583000    2.6446321  0.023100844    28372.625    257421.25 0.0027237782 0.0058936025 -0.0010185445 
  584000    2.6426513  0.024343835    28372.625    257689.37 0.0039149271 0.0028753329 0.0055664883 
  585000    2.6482301  0.023215736    28372.625    258156.11 0.00072259148 0.0033368007 0.00038429689 
  586000    2.6514964  0.023686312    28372.625    258828.68 0.0018534774 0.0028903452 -0.0031655547 
  587000    2.6308367  0.024000456    28372.625    259586.68 -0.00013758749 0.0014584823 -0.0021418406 
  588000    2.6410292  0.023862765    28372.625    260368.54 -0.001120136 0.0031819922 0.00012253311 
  589000    2.6487837  0.023468157    28372.625    261157.37 -0.00071653061 0.0015330957 0.0015009327 
  590000    2.6287925  0.024823515    28372.625     261826.9 -0.0017029409 0.00049598382 0.0030759148 
  591000    2.6536521  0.023468251    28372.625    262560.09 -0.0047960337 0.0020168936 0.0058088244 
  592000     2.645728   0.02330362    28372.625    263248.55 -0.0041771069 0.0021870208 0.0066529114 
  593000    2.6557603  0.023480978    28372.625    263684.21 -0.0042747574 -0.0049846083 0.0083327067 
  594000     2.649099  0.023623041    28372.625    264244.53 -0.0030970806 -0.0038247508 0.0084261521 
  595000    2.6423111  0.023560627    28372.625    264743.21 0.0008367197 -0.0014036438  0.011997398 
  596000    2.6312295  0.024224998    28372.625    265156.38 0.0047323533 -0.0039707332  0.013621793 
  597000     2.640255  0.023971665    28372.625    265660.39 0.0047990191 -0.0021340079 0.0088055045 
  598000    2.6429688  0.023272078    28372.625    266123.44 0.0044117263 -0.00055977599 0.0070897781 
  599000    2.6485995  0.023391545    28372.625    266622.94 0.0040657932 0.0006916022 0.0074559119 
  600000    2.6647918  0.023060121    28372.625       267170 0.0036038422 -0.0010866557 0.0099432179 
  601000    2.6421208    0.0244645    28372.625    267785.81 0.00072132587 -0.00059290302  0.012159073 
  602000    2.6495136  0.023441283    28372.625    268333.96 -0.00061723813 -0.0007308345  0.005971148 
  603000     2.652589   0.02387776    28372.625    268832.32 0.00042583405 0.0010660818 0.0043742828 
  604000      2.63229  0.025175973    28372.625    269465.37 -0.0049189463 -0.0031015584 0.0017975937 
  605000    2.6466589  0.023693688    28372.625    270100.95 -0.0025026894 -0.0027630873  0.003351199 
  606000    2.6379804  0.023857747    28372.625    270812.74 -0.0041844937 -0.0039243755 0.0019911697 
  607000    2.6495764  0.023434902    28372.625    271502.24 -0.0011117701 -0.0090790013   0.00183078 
  608000    2.6301257  0.024599795    28372.625    272335.06 -0.00046894835 -0.0082330005 0.0028019772 
  609000    2.6345351  0.024034132    28372.625    273242.58 0.00054756856 -0.0052328616  0.001101549 
  610000    2.6431834  0.023493347    28372.625    274125.96 0.0016101089 -0.0078739881 -0.00065147478 
  611000    2.6513041  0.023200577    28372.625    274868.19 -0.00025649575 -0.0058268507 -0.0021790385 
  612000    2.6344923    0.0237177    28372.625    275642.31 -0.0017457531 -0.0056130876 -0.0058909642 
  613000     2.643457  0.023518198    28372.625    276378.88 -0.0015184113 -0.0072300338 -0.0044509846 
  614000    2.6389748  0.024520183    28372.625    277017.75 -0.0028114261 -0.0077351188 -0.0021331986 
  615000     2.640446    0.0242487    28372.625    277700.06 0.0071751871 -0.009164668 -0.0036457117 
  616000    2.6407854  0.023878753    28372.625    278318.36 0.0052078171 -0.006496737 -0.0045208649 
  617000     2.648464  0.023670827    28372.625    278905.68 0.0033524128 -0.0060801333 -0.0034257708 
  618000    2.6517072  0.023415682    28372.625    279468.59 0.0057761982 -0.0059602219 -0.0048970068 
  619000    2.6367508  0.023389391    28372.625    280038.85 0.0085067093 -0.0033439919 -0.0040580936 
  620000    2.6404434  0.024289294    28372.625    280601.44 0.0059854179 -0.00026307525 -0.0037555729 
  621000    2.6477578  0.024011632    28372.625    281141.55 0.0025298473 -0.001746663 -0.0084547103 
  622000    2.6478891  0.023245469    28372.625    281675.28 0.0031214341 0.00083051476 -0.0065378016 
  623000    2.6426809  0.023872369    28372.625    282254.37 0.0041005868 0.0011294423 -0.0056844913 
  624000    2.6453286  0.023313912    28372.625    282790.24 0.0020691892 0.0010449901 -0.0063853654 
  625000    2.6412362  0.024639364    28372.625    283307.76 0.00070399443 0.0002031188 -0.0085535253 
  626000    2.6322371  0.024209423    28372.625    283841.46 -0.002235766 0.0012193454 -0.0080686008 
  627000    2.6420889  0.023481019    28372.625    284271.51 0.0017517477 0.0032689444 -0.010586381 
  628000    2.6438433  0.024008653    28372.625    284578.13 0.0009520731 0.0050279841 -0.013348171 
  629000    2.6478579  0.023587872    28372.625    284860.34 -0.0018669376 0.0038191906 -0.0098668256 
  630000    2.6428132  0.023790004    28372.625    285247.72 -0.00019496065 -0.0012137862 -0.0068876777 
  631000     2.643851  0.023936287    28372.625    285559.34 0.0043425788 0.0035714223  -0.00899553 
  632000    2.6387245  0.023721643    28372.625    285950.05 0.0028847914 0.00042398187  -0.00615679 
  633000    2.6344823  0.023948426    28372.625    286384.97 -0.00014069226 0.0017310628 -0.0086700911 
  634000    2.6436722  0.023303052    28372.625    286811.25 -0.00090545346 0.0038966269 -0.0082504097 
  635000     2.637079  0.023700255    28372.625    287154.74  0.001603682 0.0023475235 -0.0043149552 
  636000    2.6300696  0.024232053    28372.625    287461.66 0.0089988634 -0.0058265052 -0.007137607 
  637000    2.6395978  0.023615599    28372.625    287770.42 0.0028721045 -0.0042334198 -0.0043154637 
  638000    2.6373658  0.023431281    28372.625    287969.91 -0.0016248731 -0.00097265998 -0.0037708969 
  639000      2.63913  0.023341124    28372.625    288260.95 -0.0034211902 -3.5478595e-05 -0.003880528 
  640000    2.6381866  0.023324757    28372.625    288545.43 -0.0011190232 -0.00055894034 -0.0047715887 
  641000    2.6283533  0.024477941    28372.625    288775.34 -0.0021699756 0.0017203468 -0.0068447564 
  642000     2.634975  0.023361348    28372.625    289054.64 -0.0033901738 0.0032139158 -0.0034200358 
  643000    2.6495449  0.023433735    28372.625    289415.48 -0.00048512482 0.00067160973 -0.0018269611 
  644000    2.6528153  0.023299934    28372.625    289661.69  0.002258306 0.00048065151 -0.001972117 
  645000    2.6532466  0.023798366    28372.625    289957.02 0.0033906494 -0.0010572531 -0.0049688288 
  646000    2.6461916   0.02377387    28372.625    290153.81 0.0047393714 -0.00077723016 -0.0048824459 
  647000    2.6394424  0.023488135    28372.625    290199.37 0.0023550243 -0.0035015106 -0.0042550939 
  648000    2.6489431  0.023534474    28372.625     290296.8 0.0040640708 -0.0030537666 -0.0021087421 
  649000    2.6491958  0.023226833    28372.625    290384.88 0.0017388204  -0.00334915 -0.00053556458 
  650000    2.6494939  0.024840378    28372.625    290668.48 0.0028429668 -0.0056255642  0.002028879 
  651000    2.6444114  0.023718077    28372.625    291120.84 0.0027347756 -0.0065621567 -0.0025912718 
  652000     2.642933  0.024581825    28372.625    291728.25 2.597289e-05 -0.0087169334 -0.0018790525 
  653000    2.6513476  0.023560545    28372.625     292356.4 0.0042381703 -0.0053675641 -0.0046321993 
  654000     2.657019  0.023779103    28372.625    292963.66 -0.0001982776 -0.0035558327 -0.0048890127 
  655000    2.6593223  0.023428076    28372.625    293503.53 0.0013317915 -0.0052240332 -0.0051916702 
  656000     2.644542  0.023441882    28372.625    293935.23 -0.000357625 -0.0034928352 -0.004566525 
  657000    2.6338941  0.025177158    28372.625    294330.24 0.0016790588 -0.0016732564 -0.0044840624 
  658000    2.6465781  0.023246942    28372.625    294876.96 -0.002551293 -0.00022439505 -0.0032103431 
  659000      2.63993  0.024128031    28372.625    295373.59 0.0010557268 -0.0010091697 -0.0075100494 
  660000     2.653246  0.024260839    28372.625    295589.91 0.0033018477 0.0018684052 -0.0045795087 
  661000    2.6446765  0.023918646    28372.625    295607.54 0.0026388694 0.0027942094 -0.0044454411 
  662000    2.6360928  0.024446725    28372.625    295596.81 0.0014591136 -0.001035651 -0.0075354753 
  663000    2.6442438  0.023095972    28372.625    295654.49 0.0023252767 0.0026906038 -0.0064504417 
  664000    2.6295676  0.024304829    28372.625    295704.28 0.0030708556 0.0023109079 -0.0078782258 
  665000    2.6390118  0.023313164    28372.625    295880.31 -0.00066237699 0.0032655129 -0.0077715925 
  666000    2.6480776  0.023234066    28372.625    296125.39 0.00080901909 0.0015022799 -0.0062632972 
  667000    2.6540672  0.024178564    28372.625    296543.14 -0.0022938386 0.0021516612 -0.0047963192 
  668000    2.6368527   0.02342531    28372.625    297020.19 0.00069784896 0.0028614514 -0.0071531066 
  669000    2.6347635  0.023750913    28372.625    297567.14 0.0024452637 -0.0034165373 -0.0042274587 
  670000    2.6218406  0.025052916    28372.625    298214.77 0.0017630533 0.0026357627 -0.0046357441 
  671000    2.6439097  0.023406291    28372.625    298724.06 0.0011706253 0.00096440308 -0.004730738 
  672000    2.6303116  0.024638207    28372.625    299218.91 0.0044724334 -0.00091664366 -0.0013826586 
  673000    2.6381066  0.024053914    28372.625    299718.01 0.0051843766 -0.00099802275 -0.00051832798 
  674000    2.6326452  0.024615125    28372.625    300200.42 0.0062960104 0.0012548427 0.00089635043 
  675000    2.6522282  0.023439722    28372.625    300573.96 -0.0015576906 -0.00047480589 -0.0026265678 
  676000    2.6432494   0.02368567    28372.625    300980.84 -0.0016138835 0.00056247978 0.0008364862 
  677000    2.6362169  0.023880565    28372.625     301309.2 -0.0039514493 0.0021510544 -0.0013740191 
  678000    2.6389266  0.024048278    28372.625    301790.18  0.001062689 0.00039438797 -0.0011248433 
  679000    2.6332589  0.023599662    28372.625    302271.83 -0.0013263696 0.0044401847 0.00015236829 
  680000    2.6407432  0.023721639    28372.625    302683.17 -0.00021148272 0.0035077216  -0.00162326 
  681000    2.6377343  0.023831378    28372.625    303123.34 -0.001574596 0.0035179496 -0.0022277475 
  682000    2.6486564  0.023431723    28372.625    303695.52 0.0017548374 0.0026573295 -0.002934581 
  683000    2.6477376  0.023419963    28372.625    304352.64 0.0030549848 0.0029898728 0.0012120949 
  684000    2.6416215  0.024509855    28372.625    305017.66 0.0026644265 0.00046840668 -0.0010081989 
  685000     2.643219  0.023168002    28372.625    305626.82 0.0043805035 0.0015031788 -0.0020062741 
  686000    2.6473188  0.023802831    28372.625    306296.15 0.0051466223 -0.0015332833 -0.0023539869 
  687000    2.6404957  0.023073145    28372.625     306872.8 0.0017433346 -0.0016766979 -0.0026487973 
  688000    2.6363934  0.023221585    28372.625    307479.97 0.00095734467 -0.0012738789 -0.0034161161 
  689000    2.6466989  0.023578137    28372.625    308084.32 -0.00049040993 -0.0040539099 -0.0044185541 
  690000    2.6437755  0.023715315    28372.625    308794.37 -0.0023096702 -0.0014321755 -0.0015268857 
  691000    2.6270992  0.023767769    28372.625    309398.29 0.0011594429 -0.0030609288 -0.0015190681 
  692000    2.6346127  0.024147812    28372.625    309822.93 0.0029962386 -0.0026271561 0.0015679192 
  693000    2.6370079  0.023626308    28372.625    310308.32 0.0026210744 -0.0018887147 0.0014506191 
  694000     2.634541  0.023208238    28372.625    310948.18 0.0058987624 -0.0016152791 0.0033862599 
  695000    2.6438221  0.023499856    28372.625    311685.52 0.0070128597 -0.0049702465 0.0068689341 
  696000    2.6321052  0.023954963    28372.625    312461.96 0.0036812843 0.0025702802 0.0056733369 
  697000     2.636647  0.024143526    28372.625    313157.66 -0.0002448167 0.0017494465 0.0019722668 
  698000    2.6365239  0.023961114    28372.625    313657.08 -0.00088892909 0.0013799629  0.006379584 
  699000    2.6473602  0.023274616    28372.625    314123.71 0.0013402733 -0.0045282507 0.00044329112 
  700000     2.633084  0.024000009    28372.625     314632.2 -0.0003696176 -0.0054926136 0.00011135414 
  701000    2.6436615  0.023335865    28372.625    315123.74 0.0013231128 -0.0042516994 0.0014663726 
  702000    2.6397715  0.024385407    28372.625    315535.68 0.0047718709 -0.0072978103 -0.0013534053 
  703000    2.6407951  0.023604838    28372.625    315948.94 0.0079249933 -0.0059734282  0.001929211 
  704000    2.6363052  0.023740806    28372.625    316320.69  0.006359802 -0.0085009914 -0.0038719202 
  705000    2.6170672   0.02477516    28372.625     316659.1 0.0083138431 0.0010023885 -0.0044588207 
  706000    2.6259514  0.024867221    28372.625    317156.34   0.01226048 -0.0042194951 0.00028970479 
  707000    2.6497886  0.023377605    28372.625    317777.53 0.0085200152 -0.0066642814 -0.00075708639 
  708000    2.6412196   0.02388456    28372.625    318273.95 0.0072261999 -0.0095109491 -0.0031023829 
  709000    2.6471009   0.02402494    28372.625    318810.16 0.0060397718 -0.0059062703 -0.0034773948 
  710000    2.6484788  0.024604598    28372.625    319372.75 0.0036660307 -0.0075199357 -0.0032048939 
  711000    2.6334273  0.023126804    28372.625    319926.34  0.002771949 -0.0071890426 -0.0047277086 
  712000    2.6242478  0.024666147    28372.625    320456.79 0.0052674521 -0.0065343503 -0.0029584184 
  713000    2.6327234  0.023472647    28372.625    321107.45 0.00091140105 -0.0063523227 -0.0036723066 
  714000    2.6504952  0.023606676    28372.625    321739.94 0.0013866619 -0.0052939556 -0.0028976661 
  715000    2.6293457  0.023816077    28372.625    322266.74 -0.00023330755 -0.0062342352 -0.0045241102 
  716000    2.6376859  0.023186708    28372.625    322882.49 0.0018805371 -0.005717278 -0.0022915402 
  717000    2.6453254  0.024036999    28372.625    323435.58 0.00020355189 -0.0076965074 0.0017286887 
  718000    2.6412511  0.023569229    28372.625     323935.3 0.00034825545 -0.0054945864 0.0016476528 
  719000    2.6358498  0.024152608    28372.625    324312.68 0.00084352398 -0.010303974 0.0082698285 
  720000    2.6327686  0.023353572    28372.625    324742.87  0.002089339 -0.0064543447 0.0055378932 
  721000    2.6523652  0.023158355    28372.625    325109.96 0.0020659781 -0.0046530541 0.0055331392 
  722000    2.6470316  0.023522288    28372.625    325393.24 0.0024052593 -0.0085531044 0.0020148028 
  723000    2.6422547  0.023166751    28372.625    325800.29 0.00021071933 -0.0089831614 0.00071308741 
  724000    2.6457297  0.023678761    28372.625    326436.81 -0.00086940925 -0.0089255803 0.0039636887 
  725000    2.6496205  0.023359284    28372.625    326999.93 -0.0017736303 -0.0081549024 0.0020161734 
  726000    2.6465003  0.023481413    28372.625    327536.55 -0.0026221807 -0.0072647989 0.0034616079 
  727000    2.6599581  0.023749487    28372.625    328031.22 -0.0035550928 -0.0026707609 0.0011590452 
  728000    2.6384928  0.024381154    28372.625    328578.77 -0.0042088966 -0.0054999426 -0.0011007606 
  729000    2.6253012  0.025140832    28372.625    329061.88 -0.0021324321 -0.0049379567 0.00039618387 
  730000     2.634621  0.023947712    28372.625    329574.94 -0.0016495931 -0.0045125727 0.00043625763 
  731000    2.6470166  0.023843515    28372.625    330173.11 -0.00088893699 -0.0029754948 -0.002731652 
  732000    2.6512165  0.023249212    28372.625     330763.8 0.0014640816 -0.0018374484 -0.00018566662 
  733000    2.6382041  0.023795689    28372.625    331388.46 0.00023579925 -0.0045465308 -0.0024190723 
  734000    2.6473339  0.023510292    28372.625     332037.9 0.0011983419 -0.0017907276 -0.00096009411 
  735000    2.6445832  0.023981365    28372.625    332706.49 -0.00060822861 -1.2071918e-06 -0.0032372647 
  736000     2.642836  0.023309329    28372.625    333369.42 -0.00063782466 -0.0013770645 -0.0045929885 
  737000    2.6565489  0.023574087    28372.625    333982.56 -0.001311081 -0.0010343145 -0.002502455 
  738000    2.6406901  0.023497176    28372.625     334630.4 0.00023974083 0.00032815855 -0.0021202415 
  739000    2.6444009  0.023448154    28372.625    335261.75 0.0024472824 0.0037749221 -0.00063294741 
  740000    2.6464728  0.022980998    28372.625    335716.21 0.0029496847  0.003500382 0.0004325855 
  741000    2.6425859  0.023454801    28372.625    336036.05 0.0049601315 0.0025384754 0.0020521536 
  742000    2.6430571  0.023493458    28372.625    336450.48 0.0076630822 0.0021283071 0.0021787274 
  743000    2.6541218  0.023103348    28372.625    336762.54 0.0088825092  0.001181636 0.0042372847 
  744000    2.6455482  0.023692747    28372.625    336954.89 0.0056964689 0.0023971785 0.0043589376 
  745000    2.6541041  0.023152604    28372.625    337221.04 0.0033235166 0.0038729141 0.0056370213 
  746000    2.6429758  0.023429489    28372.625    337643.45 0.0040280334 0.0033864622 0.0073586797 
  747000    2.6444703  0.024051724    28372.625    338043.44 0.0052209361 -0.00081545127 0.0071244179 
  748000    2.6410839   0.02316305    28372.625    338292.22 0.0078536829 0.0021076736 0.0064163897 
  749000    2.6326698  0.023820948    28372.625    338669.01 0.0054041187  0.001961656 0.0054202735 
  750000    2.6628256   0.02359118    28372.625     339135.9 0.0045713373 0.0027878216 0.0054785393 
  751000    2.6587261  0.024061833    28372.625    339567.19 0.0067994041 0.0027317976 0.00098338821 
  752000    2.6429374  0.024105812    28372.625    339990.75 0.0074401953 0.0011570916 0.0050565518 
  753000    2.6447647   0.02317305    28372.625    340490.27 0.0044365576 -0.0016223634 0.0041534547 
  754000    2.6464018   0.02344964    28372.625    341038.83 0.0017608994 -0.0015265054   0.00488763 
  755000    2.6455904  0.023668306    28372.625    341602.41 0.00091590566 0.0013550681 0.0051832724 
  756000    2.6506515  0.023644466    28372.625    342160.45  0.004654841 0.00051124469 0.0031131774 
  757000    2.6431274  0.024556637    28372.625    342699.62 0.0060417899   0.00103156 -0.002849778 
  758000    2.6321428  0.023593706    28372.625    343225.52 0.0039017106 -0.0024516444 -0.001173183 
  759000    2.6533958  0.023913174    28372.625    343678.79 0.0038703069 -6.0177432e-05 -0.0023355162 
  760000    2.6372875  0.024473808    28372.625    343981.41  0.003933369 0.0017522049 -0.0009300874 
  761000    2.6404968  0.023671215    28372.625    344399.91 0.0037345056 0.00080143538 -0.00075543464 
  762000    2.6468748  0.024931417    28372.625    344809.97 0.0053334165 0.0011189595 -0.0033352107 
  763000    2.6456892  0.023670363    28372.625    345406.14 0.0064045501 -0.00027460656 -0.003654775 
[...]
 1844000    2.6581073   0.02358098    28372.625    849584.72 0.00066099894 0.0021799041 0.0016521476 
 1845000    2.6452155  0.023716608    28372.625    849628.42 -0.0021968121 -0.00062539122 0.0020475152 
 1846000    2.6640009  0.023600782    28372.625    849565.68 -0.0022051202 -0.0015199012  0.002662153 
 1847000    2.6453263  0.023675212    28372.625    849322.03 -0.001841627 -0.003248876 0.0025689152 
 1848000    2.6475834  0.024275537    28372.625     849055.8 -0.003511524 0.0012925534 -0.0014388617 
 1849000    2.6449301  0.023162133    28372.625    848972.95 -0.0022380708 0.0052602945 -0.00056269572 
 1850000    2.6383375  0.023953693    28372.625    849107.29 -0.0023517509 0.0053118601 0.0038937522 
 1851000    2.6621387  0.023258731    28372.625    849551.74 -0.0026904007 0.0048406709 0.0010376835 
 1852000    2.6413001  0.023519441    28372.625     850319.3 -0.0032220631  0.002497895 -0.0019075112 
 1853000    2.6488867  0.023998307    28372.625    850962.04 0.00066539346 0.0016454416 -0.0045150795 
 1854000    2.6557774  0.024212034    28372.625    851533.57 -0.0011449164 -0.00071447109 -0.0053789785 
 1855000    2.6554034  0.023357997    28372.625    851858.35  0.000409034 -0.00088983945 -0.0051436101 
 1856000    2.6427367   0.02431405    28372.625    851869.06 -0.00084595919 -0.0025040138 -0.0045551088 
 1857000    2.6506128  0.023141463    28372.625    851956.69 0.00076637516 -0.0020098337 -0.0065101176 
 1858000    2.6397451  0.023129288    28372.625    852004.54 0.0028139586 -0.0035996899  -0.00762081 
 1859000     2.656639  0.023667348    28372.625    852187.09 0.0019785163 -0.0047863577 -0.0074653256 
 1860000     2.639831   0.02343169    28372.625     852463.7 0.0035298544 -0.0019030665 -0.0045214177 
 1861000    2.6392777  0.023354224    28372.625    852945.32 0.00070502295 -0.0023629803 -1.4905522e-05 
 1862000    2.6418509  0.023722441    28372.625    853327.23 -0.0011918809 -0.0042017657 -0.0021374639 
 1863000     2.655245  0.023075887    28372.625    853740.43 0.0025359989 0.00019835201 0.00014361191 
 1864000    2.6521414  0.024686078    28372.625    854120.78 0.0039928359 -0.0029169411 0.00058648549 
 1865000    2.6463723  0.023731585    28372.625    854450.87 0.0066807526 -0.0019421111 0.00033266318 
 1866000    2.6505208  0.023305178    28372.625    854437.79 0.0073783134 -0.0034284346 -0.00069757049 
 1867000     2.652597  0.023375403    28372.625    854316.18 0.0057160491 -0.00058214415 -0.00015694355 
 1868000    2.6458378  0.023535552    28372.625    854324.63 0.0066244299 -0.00062248666 -0.0012032116 
 1869000    2.6492501  0.023291254    28372.625    854370.92 0.0046883495 0.0025227112 0.00072181739 
 1870000    2.6409288  0.023293746    28372.625    854379.78 0.0033154397 0.0024953531 -0.00030378484 
 1871000    2.6456777  0.024183535    28372.625    854335.95 0.0026178804 -0.00026129209 0.00025289437 
 1872000    2.6400279  0.023178753    28372.625    854617.32 0.0011915993 -0.00039506245 -0.0025874806 
 1873000     2.604392  0.025981255    28372.625    855005.14 -0.00068579631 -9.2931538e-05 -0.0022295563 
 1874000    2.6316285  0.023693871    28372.625    855319.44 -0.0022820687 0.0019602429 -0.002697595 
 1875000    2.6406526  0.023197647    28372.625    855878.64 -0.0021622777 0.0030609756 -0.0025419828 
 1876000    2.6530502  0.023620593    28372.625    856591.57 -0.0036351147 0.0022228339 -0.0010112762 
 1877000    2.6429646  0.023178266    28372.625    857282.12 -0.0028116123 0.0012812659 -0.0028944026 
 1878000    2.6468256  0.023413317    28372.625    858023.65 -0.0015389511 0.0012912073 -0.0041516159 
 1879000     2.646035  0.023251242    28372.625    858708.48 0.0013440868 0.00093870023 -0.0007830887 
 1880000    2.6417139  0.023654026    28372.625    859469.36 -0.0016890093 0.0019591419 -0.0017809584 
 1881000    2.6456249  0.024096015    28372.625    860255.02 0.0037072679 -0.0017581976 -0.0032826779 
 1882000    2.6172236  0.025871288    28372.625    860812.42 0.0022743391 0.0021024482 -0.0089275135 
 1883000    2.6530732  0.024035868    28372.625    861501.55 0.00058323954 0.0021378646 -0.004979085 
 1884000    2.6356824   0.02379026    28372.625     862126.6 0.00055281346 0.00036957303 -0.0058110642 
 1885000    2.6390689  0.024282549    28372.625    862566.26 -0.00072055919 0.0010248886 -0.0056782664 
 1886000    2.6611501  0.023636654    28372.625    862740.64 0.0012013224 0.00032759283 -0.0061843903 
 1887000    2.6402534  0.024093723    28372.625    862953.79 0.0022433255 0.0012170251 -0.0045686159 
 1888000    2.6418232  0.024009641    28372.625    863129.21 0.0022480272 0.0029674462 -0.0070329119 
 1889000    2.6297811   0.02337361    28372.625    863312.05  0.001835051 0.0063548882 -0.0054563012 
 1890000    2.6355575  0.023499551    28372.625    863639.62 0.00084956782 0.0051056445 -0.0037229467 
 1891000    2.6466416  0.023239325    28372.625    864040.82 -0.0042798346 0.0013840653 -0.0062217667 
 1892000    2.6471631  0.023402748    28372.625    864546.88 -0.0042750673 0.0036734034 -0.0031909082 
 1893000    2.6424458  0.023350172    28372.625    864902.22 -0.0034617519 0.0038405917 -0.0053275091 
 1894000    2.6501104  0.023581566    28372.625    865412.16 -0.0049248709 0.0056111318 -0.0069588795 
 1895000    2.6431479  0.023673097    28372.625    866051.98 -0.0015345141 0.0046416524 -0.0064239194 
 1896000    2.6567743  0.024053347    28372.625    866669.16 -0.0038224741 -0.00075696858 -0.0058876626 
 1897000    2.6414657  0.023137705    28372.625    867240.13 -0.0021500584 0.00030306199 -0.0072227071 
 1898000    2.6321506  0.025193215    28372.625    867728.29 -0.0022968276 -0.00089767746 -0.0035276682 
 1899000    2.6657812  0.023207347    28372.625    868001.57 -0.0020626704 -0.0020573589 -0.0043529922 
 1900000    2.6400934  0.025013607    28372.625    868273.24 8.8745959e-05 -0.0021423688 -0.004293058 
 1901000     2.651768  0.023140367    28372.625    868531.76 -0.0020494456  -0.00575517 -0.0027611553 
 1902000    2.6454118  0.023472509    28372.625    869047.73 -0.0020291538 -0.0045781404 -0.00018227725 
 1903000     2.648025  0.023228727    28372.625    869796.04 -0.003577842 -0.0045218707 -0.00080439863 
 1904000    2.6475009  0.023316806    28372.625     870563.4 -0.002600912 -0.0063441318 8.8721954e-05 
 1905000     2.647285  0.023826754    28372.625    871347.36 -0.0010500745 -0.0073967812 0.00061759467 
 1906000     2.639141  0.023468368    28372.625    872223.43 -0.0035587281 -0.0043657648 -0.0013352025 
 1907000    2.6396081  0.023542991    28372.625    872957.98 -0.0011248124 -0.0064884365 0.00025134163 
 1908000    2.6446921   0.02428106    28372.625    873807.55 -0.0045255368 -0.0055614344 0.00085719142 
 1909000    2.6299436  0.024981302    28372.625    874451.72 -0.0016586946 -0.0025605035  -0.00153098 
 1910000    2.6359047  0.023313111    28372.625    874787.05 -0.0036753418 -0.0057739988 -0.00025772696 
 1911000    2.6636487  0.023478398    28372.625    875230.65 -0.0021432615 -0.0073587418 0.0011011284 
 1912000    2.6456038  0.023549715    28372.625    875482.65 -0.0014302205 -0.0085920925 7.1464688e-05 
 1913000    2.6495088  0.023328638    28372.625     875707.3 -0.0007445505 -0.0079976372 -0.0016582784 
 1914000     2.617699  0.024989986    28372.625    876101.56 -0.0037821458 -0.0077583889 -0.00077671963 
 1915000    2.6440631  0.024161618    28372.625    876627.45 -0.0042930442 -0.0032886822 -0.0022197529 
 1916000    2.6422987  0.023496954    28372.625    876830.69 -0.0035055149 -0.0060976195 -0.0046942931 
 1917000    2.6254764  0.024831553    28372.625    877286.39 -0.0060529764 -0.0040014388 -0.0044086936 
 1918000    2.6420529  0.023623044    28372.625     877613.1 -0.0032441391 -0.0074488805 -0.0010742571 
 1919000     2.647109   0.02380869    28372.625    877949.12 -0.00096966132 -0.0058275542 -0.00050773394 
 1920000    2.6430859  0.024043738    28372.625    878393.04 -0.0026503926 0.0010477976 -0.0018984502 
 1921000     2.646475   0.02381827    28372.625    878755.47  -0.00234167 -7.5741533e-05 0.00079805491 
 1922000    2.6331758  0.024820356    28372.625     879005.6 -0.0027944083 -0.0012319274 0.0011709625 
 1923000    2.6196966  0.025003589    28372.625    879155.69 0.0016997076 -0.0047625734 -0.0059521409 
 1924000    2.6345129  0.023938514    28372.625    879258.83  0.002592727 -0.00046488389 -0.0017712559 
 1925000    2.6493486  0.023867645    28372.625    879686.04 0.00095785942 0.0013481604 5.7949899e-05 
 1926000     2.647927  0.023114054    28372.625    880067.32 0.00096838227 -0.00059798321 0.00094319052 
 1927000    2.6320661  0.024187507    28372.625    880713.38   0.00182937  0.000117453 -0.0019195396 
 1928000    2.6418508  0.024291814    28372.625    881430.47 -0.00073164791 -0.0042078502 0.0020695642 
 1929000    2.6386678  0.023259807    28372.625    881929.88 -0.00043168092 -0.0032181248 0.00080346175 
 1930000    2.6462614  0.023359851    28372.625    882099.06 -0.0027316276 -0.001441444 -0.00010629754 
 1931000    2.6425072   0.02309649    28372.625    882348.97 -0.0017069656 0.0020570869 -0.0015978838 
 1932000    2.6450811  0.023228302    28372.625    882533.09 -0.0044855507 0.0028733533 0.00017765415 
 1933000     2.650194  0.023329042    28372.625    882546.21 -0.0051447804 0.00086775626 0.00060549675 
 1934000    2.6396703  0.023438774    28372.625    882896.24 -0.0031081874 0.00058840644 0.0025569087 
 1935000    2.6402489  0.023732608    28372.625    883487.49 -0.0021992905 -0.0013414419 0.0040696309 
 1936000     2.641469  0.023501431    28372.625    884295.53 -0.0029599581 -0.00068804264 0.0013446496 
 1937000    2.6476816  0.024617919    28372.625    884952.23 -0.0040300144 -0.00068546525 0.0029922376 
 1938000    2.6482944  0.023219186    28372.625    885625.35 -0.0021392033 -0.00036519224 0.0029644793 
 1939000    2.6576413  0.023253815    28372.625    886188.57 -0.00060912965 0.0025496933 0.0045163057 
 1940000    2.6477809  0.023111531    28372.625     886795.8 -0.00070339918 0.0038122219 0.0086214511 
 1941000    2.6428299  0.024223075    28372.625    887508.31 -0.00063204812 0.0048223856 0.0053010717 
 1942000    2.6519283  0.023123564    28372.625    888388.43 -0.0010188835 0.0078515495 -0.00047267981 
 1943000    2.6674092  0.023547162    28372.625    889127.58 -0.003386544 0.0068971893 -0.0038463535 
 1944000    2.6410603  0.023439687    28372.625    889827.47 0.00019468638 0.0054406716 -0.0029627113 
 1945000    2.6413037  0.023383975    28372.625    890742.03 0.0010176503  0.006472197 -0.0026040128 
 1946000    2.6530174  0.023780722    28372.625    891961.13 -0.001208732 0.0010478017 -0.00099764455 
 1947000    2.6472453  0.024526841    28372.625    893146.09 -0.00083269197 -1.1958611e-05 -0.0020642042 
 1948000     2.646586  0.023287863    28372.625    894044.25 0.0010482907 0.0035149954 -0.0037880051 
 1949000    2.6511257  0.023300856    28372.625     894970.8 -0.00063809267 0.0043954278 -0.001474944 
 1950000     2.646254  0.024109307    28372.625    896031.46 -0.00070313304 0.0043639355 -0.0024555548 
 1951000    2.6405301  0.024949288    28372.625    896824.71 0.0031045075 0.0040795819 0.0031837636 
 1952000     2.650982  0.023747899    28372.625    897688.92 0.0023730397 0.0018080459 0.0047212804 
 1953000    2.6414289  0.023919512    28372.625    898655.64 -0.0011934859 0.0080867634 0.0078359745 
 1954000    2.6357027  0.025012492    28372.625    899503.75 0.0057734593 0.00042123354  0.005739998 
 1955000    2.6355255  0.023334581    28372.625    900241.58 0.0031849415 9.0491577e-06 0.0060402757 
 1956000    2.6223412  0.024667884    28372.625    900970.36 0.0033053494 0.0012392253 0.0064845732 
 1957000    2.6416423  0.023934348    28372.625    901877.07 0.0018245316 0.0033274364 0.0044794228 
 1958000    2.6413553  0.024142548    28372.625     902691.8 0.0034962893 0.0020498976 0.0047631948 
 1959000    2.6479735  0.024007435    28372.625    903555.08 0.0033459706 -0.00017102518 0.0030946423 
 1960000    2.6277996  0.024704444    28372.625    904511.92 0.0021407651 0.0015377753 0.0038575389 
 1961000     2.643527  0.023749925    28372.625    905551.89 0.0041793435 0.0025237376 0.0015195979 
 1962000    2.6510631  0.024064901    28372.625     906716.2 0.0091591895 0.0024809265 0.0035418251 
 1963000    2.6484966   0.02327822    28372.625    907893.44 0.0067068982 0.0028451487 0.0014014831 
 1964000    2.6436946  0.023551278    28372.625    908971.16 0.00023097238 0.0017303466 0.0017011395 
 1965000    2.6452962  0.023928546    28372.625    909908.93 0.0018014185 3.2583173e-05 0.0056863878 
 1966000    2.6433584  0.023370951    28372.625    910786.59 -0.0013668143 -0.0022095936 0.0052529976 
 1967000    2.6609905  0.023551557    28372.625    911521.96 0.0018429038 -0.0013937374 0.0054356156 
 1968000    2.6534778    0.0231217    28372.625    912404.46 0.0013169618 -0.0016353614 0.0044957568 
 1969000    2.6413323  0.024640158    28372.625    913219.65 0.0020712689 -0.00083885215 0.0025304947 
 1970000    2.6447984  0.023249581    28372.625    914042.73 -0.00096387974 -0.0049018048 0.0037595348 
 1971000    2.6385389  0.023270387    28372.625    914812.03 -0.0023753129 -0.0055568977 -0.00052898452 
 1972000    2.6454514  0.023667004    28372.625    915797.18 0.0010031831 -0.0049005221 0.00026262454 
 1973000    2.6536283  0.023969067    28372.625    916720.51 0.0016339997 -0.0029122612 -0.0029693463 
 1974000     2.651819   0.02340403    28372.625    917598.28 0.0027627077 -0.0031310304 -0.0025586367 
 1975000    2.6529908  0.023522173    28372.625    918369.34 0.0039525159 -0.0033601676 -0.0019960673 
 1976000    2.6413895  0.023546044    28372.625    919104.15 0.0051179392 -0.0042723619 -0.0039376828 
 1977000    2.6472852  0.024418013    28372.625    919634.28 0.0021325082 -0.0065750571 -0.0056854571 
 1978000    2.6362792  0.023146404    28372.625    919790.34  0.001740357 -0.0055533222 -0.00078421247 
 1979000     2.647365  0.023984438    28372.625    919982.23 -0.00074490796 -0.0051812861 -0.0034321603 
 1980000     2.650074  0.023848332    28372.625    919920.38 -0.0022072428 -0.0071987861 0.0030221738 
 1981000    2.6519683  0.023198057    28372.625    919805.97 -0.0035496762 -0.003642785 0.0016582201 
 1982000    2.6466475  0.023220059    28372.625    919822.43 -0.0037030775 -0.00083802908 -0.0006410523 
 1983000    2.6471992  0.023678378    28372.625    919665.18 -0.0029098307 -0.00069897268 -0.00041184677 
 1984000    2.6459558  0.024303532    28372.625    919630.84 -0.002842158 0.00060454456 -0.00057379972 
 1985000    2.6500824   0.02321402    28372.625    919420.69 -0.00016963791 0.0019670166 -0.0023464328 
 1986000    2.6480517  0.023791224    28372.625    919252.68 -0.0032407658 0.0016776863 -0.0021881194 
 1987000    2.6325996  0.023893788    28372.625    919282.44 -0.0028967012 0.00098353068 -0.0013098709 
 1988000    2.6652253  0.023216196    28372.625    919695.39 -0.0023488886  0.004278546 -0.0010750333 
 1989000    2.6412544  0.023943133    28372.625    920192.76 -0.00051174037 0.00084722384 0.0020896543 
 1990000    2.6250048  0.024664081    28372.625    920669.56 -0.00038482888  0.003159216 0.0006946536 
 1991000    2.6600214  0.023746842    28372.625    921340.75 -0.0024415707 0.0020928001 0.00013845047 
 1992000    2.6377494  0.023359433    28372.625    922050.32 -0.0058528434 0.00051814603 0.00034634277 
 1993000    2.6231353  0.025052128    28372.625    922810.56 -0.0048328013 0.0093317181 0.0056089448 
 1994000    2.6591051  0.023567244    28372.625     923467.4 -0.0032547961  0.002681826 0.0029488946 
 1995000    2.6554489  0.023043936    28372.625    924163.95 -0.0020951817 0.0022296821 0.0011774274 
 1996000    2.6471249  0.023881591    28372.625    924731.41 0.00062438127 0.0030015112 0.0005432863 
 1997000    2.6360301  0.023990418    28372.625    924992.04 0.00024202453 -0.0030477999 0.0025699921 
 1998000    2.6355417  0.024069858    28372.625    925059.12 0.0016676082 -0.0017619013 -0.00094285472 
 1999000    2.6382737   0.02327739    28372.625    925172.36 0.0023414655 -0.0010279595 -0.00046607463 
 2000000    2.6544427  0.023172897    28372.625    925235.92 0.0023389698 -0.0011347201 -0.0013903317 
Loop time of 761.527 on 1 procs for 2000000 steps with 256 atoms

Pair  time (%) = 10.5585 (1.38649)
Neigh time (%) = 12.7804 (1.67826)
Comm  time (%) = 5.38903 (0.707661)
Outpt time (%) = 0.186402 (0.0244774)
Other time (%) = 732.613 (96.2031)

Nlocal:    256 ave 256 max 256 min
Histogram: 1 0 0 0 0 0 0 0 0 0
Nghost:    201 ave 201 max 201 min
Histogram: 1 0 0 0 0 0 0 0 0 0
Neighs:    127 ave 127 max 127 min
Histogram: 1 0 0 0 0 0 0 0 0 0

Total # of neighbors = 127
Ave neighs/atom = 0.496094
Neighbor list builds = 158149
Dangerous builds = 3117
#	run			10000
	unfix			1
	uncompute		myKE
	uncompute		myPE
	uncompute		myStress
	uncompute		flux
	uncompute		myDis
	unfix			JJ

	next seed
	next iseed
jump lmp.in.gk loop_seed
variable iseed loop 10
variable seed index 11111 22222 33333 44444 55555 66666 77777 88888 99999 11112
clear

# Lennard-Jones
#Prepare Geometry---------------------------------------------------------------
units			lj
atom_style		atomic
read_data		lmp.in.x0.1
  orthogonal box = (0 0 0) to (30.5 30.5 30.5)
  1 by 1 by 1 MPI processor grid
  256 atoms
#Initialize Structure-----------------------------------------------------------
#mass           	1  1.0
#group         		Ar type = 1
#LJ Potentials------------------------------------------------------------------
pair_style		lj/cut 2.5
pair_coeff		* * 1.0 1.0
pair_modify          	shift yes
#pair_modify   	tail no

#Variables----------------------------------------------------------------------
#LJ Parameters
variable    	kB 		equal 1.3806504e-23 	# [J/K] Boltzmann
variable	sigma_Ar 	equal 3.4e-10 		# m
variable	eps_Ar		equal 1.67e-21		# J
variable	mass_Ar		equal 6.63e-26		# kg
variable	tau_Ar		equal 2.1423e-12	# s
#thermo Parameters
variable    	T_melt 		equal 300*(${kB}/${eps_Ar})
variable    	T_melt 		equal 300*(1.3806504000000001236e-23/${eps_Ar})
variable    	T_melt 		equal 300*(1.3806504000000001236e-23/1.6699999999999999942e-21)
variable	T_0K		equal 0.00001
variable	T_2_5K		equal 2.5*(${kB}/${eps_Ar})
variable	T_2_5K		equal 2.5*(1.3806504000000001236e-23/${eps_Ar})
variable	T_2_5K		equal 2.5*(1.3806504000000001236e-23/1.6699999999999999942e-21)
variable	T_5K		equal 5*(${kB}/${eps_Ar})
variable	T_5K		equal 5*(1.3806504000000001236e-23/${eps_Ar})
variable	T_5K		equal 5*(1.3806504000000001236e-23/1.6699999999999999942e-21)
variable	T_10K		equal 10*(${kB}/${eps_Ar})
variable	T_10K		equal 10*(1.3806504000000001236e-23/${eps_Ar})
variable	T_10K		equal 10*(1.3806504000000001236e-23/1.6699999999999999942e-21)
variable	T_15K		equal 15*(${kB}/${eps_Ar})
variable	T_15K		equal 15*(1.3806504000000001236e-23/${eps_Ar})
variable	T_15K		equal 15*(1.3806504000000001236e-23/1.6699999999999999942e-21)
variable	T_320K		equal 320*(${kB}/${eps_Ar})
variable	T_320K		equal 320*(1.3806504000000001236e-23/${eps_Ar})
variable	T_320K		equal 320*(1.3806504000000001236e-23/1.6699999999999999942e-21)

variable   	dt 		equal 0.002
variable	quench_rate	equal 1.0
variable	quench_length 	equal 10000
#kappa parameters
variable    	p 		equal 200000 		# correlation length
variable    	s 		equal 5  		# sample interval
variable    	d 		equal $p*$s 		# dump interval
variable    	d 		equal 200000*$s 		
variable    	d 		equal 200000*5 		

#SED parameters
variable	w_step		equal 2^5
variable	w_total		equal 2^16
variable	t_total		equal 2^18
variable	num_ffts	equal ${t_total}/${w_total}
variable	num_ffts	equal 262144/${w_total}
variable	num_ffts	equal 262144/65536

#------------ RUN TEMP ---------------------------------------------------------------------
variable 	T_run 		equal ${T_320K}
variable 	T_run 		equal 2.6455576526946114058
#------------ RUN TEMP ---------------------------------------------------------------------

log 	log_heat_${iseed}.lammps
log 	log_heat_2.lammps
