
#------------ NVE rescale ---------------------------------------------------------------------

	velocity 		all create ${T_run} ${seed} rot yes dist gaussian
	velocity 		all create 2.6455576526946114058 ${seed} rot yes dist gaussian
	velocity 		all create 2.6455576526946114058 11111 rot yes dist gaussian

	fix 			1 all nve
	fix 			2 all temp/rescale 1 ${T_run} ${T_run} 0.01 1.0
	fix 			2 all temp/rescale 1 2.6455576526946114058 ${T_run} 0.01 1.0
	fix 			2 all temp/rescale 1 2.6455576526946114058 2.6455576526946114058 0.01 1.0
	timestep		${dt}
	timestep		0.0020000000000000000416
	thermo_style  		custom step temp press etotal vol
	thermo			1000
	run             	200000
Memory usage per processor = 1.67356 Mbytes
Step Temp Press TotEng Volume 
       0    2.6455577  0.023669049   -1.5687558    28372.625 
    1000    2.6455577  0.020889403    3.0574281    28372.625 
    2000    2.6522926  0.021877431    3.1321036    28372.625 
    3000    2.6499969   0.02104859    3.1504697    28372.625 
    4000    2.6496926  0.019828745    3.2156215    28372.625 
    5000    2.6441277  0.023489416    3.3223448    28372.625 
    6000    2.6441426  0.021579559    3.3709183    28372.625 
    7000    2.6463237  0.022228673    3.4231436    28372.625 
    8000    2.6408325  0.022601054    3.4741116    28372.625 
    9000    2.6449248  0.022685287    3.5404035    28372.625 
   10000    2.6476991  0.022317066    3.6156956    28372.625 
   11000    2.6506929  0.023131989    3.6328078    28372.625 
   12000    2.6455577  0.023421182    3.6924313    28372.625 
   13000    2.6479276  0.022778273    3.7394631    28372.625 
   14000     2.647661  0.023323591    3.8013625    28372.625 
   15000    2.6436015  0.023310975    3.8401545    28372.625 
   16000     2.646995  0.023916832    3.8443992    28372.625 
   17000    2.6410914  0.023587124    3.8630722    28372.625 
   18000    2.6437386  0.024470717    3.8853898    28372.625 
   19000    2.6488213  0.023658685     3.876036    28372.625 
   20000    2.6430053  0.023975902    3.8623002    28372.625 
   21000    2.6532085  0.023406132    3.8951071    28372.625 
   22000    2.6477517  0.023380493    3.8955662    28372.625 
   23000    2.6382946  0.023435548    3.8973127    28372.625 
   24000    2.6447226  0.023489183    3.8957407    28372.625 
   25000    2.6452701  0.023346839    3.8834729    28372.625 
   26000    2.6459929  0.023648233    3.9036397    28372.625 
   27000     2.645984  0.023614203     3.895343    28372.625 
   28000    2.6460485  0.024233775    3.8942528    28372.625 
   29000    2.6485485  0.024131364    3.8847824    28372.625 
   30000    2.6457553  0.023828024    3.9033304    28372.625 
   31000    2.6483264  0.024050075     3.900346    28372.625 
   32000    2.6438293  0.023942559    3.9056614    28372.625 
   33000    2.6396666  0.023993278    3.8960726    28372.625 
   34000    2.6458914  0.023361475    3.8971758    28372.625 
   35000    2.6464129  0.023594947    3.9024303    28372.625 
   36000    2.6517634  0.023354829    3.9228598    28372.625 
   37000    2.6474708  0.023284793    3.9076116    28372.625 
   38000    2.6461069  0.023874369     3.910692    28372.625 
   39000    2.6475808    0.0236036    3.9161261    28372.625 
   40000    2.6412141   0.02325377    3.8987831    28372.625 
   41000     2.650112  0.023460944    3.9148738    28372.625 
   42000    2.6517364  0.023358373    3.9209407    28372.625 
   43000    2.6366399  0.024395028    3.9050506    28372.625 
   44000     2.654695  0.023711361    3.8901009    28372.625 
   45000    2.6440985  0.024742932    3.9253069    28372.625 
   46000    2.6455577  0.023403714    3.8911638    28372.625 
   47000    2.6430911  0.024276628    3.9091179    28372.625 
   48000    2.6381067  0.023201417    3.9084953    28372.625 
   49000    2.6506662  0.023700941    3.8992835    28372.625 
   50000    2.6465279  0.022987715    3.9026723    28372.625 
   51000    2.6485906  0.023204908    3.8894816    28372.625 
   52000    2.6518899  0.023058466    3.8917847    28372.625 
   53000    2.6443491  0.023700552    3.8851837    28372.625 
   54000     2.647973  0.023879574    3.8915606    28372.625 
   55000    2.6435204  0.025826044    3.9386758    28372.625 
   56000    2.6472327  0.023980534     3.925141    28372.625 
   57000    2.6440953  0.023770817    3.9152911    28372.625 
   58000    2.6482801  0.024711724    3.9146999    28372.625 
   59000    2.6548044   0.02314401    3.9168938    28372.625 
   60000     2.645212  0.024009573    3.8883265    28372.625 
   61000    2.6477221  0.023453584    3.9060351    28372.625 
   62000    2.6519251  0.023410119    3.9283291    28372.625 
   63000    2.6463274  0.023594927    3.9086601    28372.625 
   64000     2.653238  0.023421312    3.9258432    28372.625 
   65000    2.6407127  0.024748061    3.9004339    28372.625 
   66000    2.6421314  0.023825311    3.8878402    28372.625 
   67000    2.6429728  0.023465236    3.9032465    28372.625 
   68000    2.6432863  0.023909857    3.9184347    28372.625 
   69000    2.6440225  0.023312889    3.9063538    28372.625 
   70000    2.6420478  0.024087178    3.9086934    28372.625 
   71000    2.6458246  0.023396353    3.8919916    28372.625 
   72000    2.6384896  0.024272815    3.9131108    28372.625 
   73000     2.652857  0.023449991     3.928012    28372.625 
   74000    2.6546806  0.023392769    3.9005251    28372.625 
   75000    2.6516378  0.023471913    3.9032068    28372.625 
   76000    2.6469065  0.023356209     3.899905    28372.625 
   77000    2.6446692  0.023290959    3.9162432    28372.625 
   78000    2.6516259  0.023726296    3.9199904    28372.625 
   79000    2.6550376  0.023663439    3.9083688    28372.625 
   80000     2.644999  0.023809649    3.8967592    28372.625 
   81000    2.6426156  0.023172035    3.9126752    28372.625 
   82000    2.6486865  0.023976269    3.9271439    28372.625 
   83000    2.6467749  0.024014981    3.9164633    28372.625 
   84000    2.6523219  0.023303569    3.9284136    28372.625 
   85000    2.6386213  0.024159763    3.8994015    28372.625 
   86000    2.6483222  0.023400534     3.906097    28372.625 
   87000    2.6530707  0.024797775    3.9402821    28372.625 
   88000    2.6442874  0.023582634    3.9012539    28372.625 
   89000    2.6443211  0.023416098    3.9093187    28372.625 
   90000    2.6492832  0.023693355    3.9147164    28372.625 
   91000    2.6403592  0.024456899    3.9241842    28372.625 
   92000     2.648784  0.023313325    3.9114421    28372.625 
   93000    2.6422664  0.025363414    3.9123907    28372.625 
   94000     2.643197  0.024518125    3.8998002    28372.625 
   95000    2.6434185  0.023442819    3.9021424    28372.625 
   96000     2.648977  0.027699039    4.0028852    28372.625 
   97000    2.6470665  0.023745112    3.9207718    28372.625 
   98000    2.6436736  0.023212267    3.9062262    28372.625 
   99000    2.6531678  0.023202126    3.9093282    28372.625 
  100000    2.6542183  0.023425941    3.8996873    28372.625 
  101000    2.6503654   0.02371085    3.9080903    28372.625 
  102000    2.6422443  0.023425875    3.9068951    28372.625 
  103000    2.6453502  0.023180006     3.907822    28372.625 
  104000    2.6432397  0.024539924     3.904564    28372.625 
  105000    2.6500715  0.023507326    3.8898732    28372.625 
  106000    2.6475829  0.024018894    3.9202095    28372.625 
  107000    2.6499707  0.024055947     3.905087    28372.625 
  108000    2.6400713   0.02436792    3.9073173    28372.625 
  109000    2.6486657  0.023326933      3.91044    28372.625 
  110000    2.6505086  0.023724371    3.9241421    28372.625 
  111000    2.6463015   0.02355137    3.9084159    28372.625 
  112000    2.6459149  0.023593335    3.9124646    28372.625 
  113000    2.6515718  0.023271352    3.9195407    28372.625 
  114000      2.64959  0.023358704    3.9220112    28372.625 
  115000    2.6543373  0.023508544    3.9114524    28372.625 
  116000    2.6471068  0.023571085    3.9155191    28372.625 
  117000     2.647874  0.024683522    3.9307966    28372.625 
  118000      2.64354  0.023487344    3.9039294    28372.625 
  119000    2.6425008  0.024306316    3.9203977    28372.625 
  120000     2.653336  0.023571967    3.9202483    28372.625 
  121000    2.6509868  0.025333697    3.9258784    28372.625 
  122000    2.6498512   0.02381181    3.9107425    28372.625 
  123000    2.6416681  0.023070766    3.8874568    28372.625 
  124000    2.6482252  0.024723312    3.9208863    28372.625 
  125000    2.6378156  0.024161612    3.8790823    28372.625 
  126000    2.6463982  0.023648233     3.910925    28372.625 
  127000    2.6485304  0.023651499    3.8983944    28372.625 
  128000     2.650449  0.023270927    3.9006926    28372.625 
  129000    2.6407151  0.023217662    3.9033484    28372.625 
  130000    2.6377603  0.024206563    3.9046233    28372.625 
  131000    2.6366968  0.025238164    3.9045238    28372.625 
  132000    2.6439182  0.025313652    3.9424239    28372.625 
  133000    2.6457968  0.023050723    3.8937442    28372.625 
  134000    2.6485201  0.023231815    3.9096047    28372.625 
  135000    2.6391899   0.02337986    3.9088596    28372.625 
  136000    2.6401148  0.023486536     3.913301    28372.625 
  137000    2.6430183  0.023832077    3.9142976    28372.625 
  138000    2.6367177  0.024360036    3.9168764    28372.625 
  139000    2.6478935  0.023799302    3.9026354    28372.625 
  140000     2.649645   0.02341616    3.9188232    28372.625 
  141000    2.6415061  0.023424261    3.9058307    28372.625 
  142000    2.6391475  0.024143693    3.9083915    28372.625 
  143000    2.6372192  0.024563413    3.9090654    28372.625 
  144000    2.6464698  0.024192691    3.9069542    28372.625 
  145000    2.6550377  0.023399958    3.9220923    28372.625 
  146000    2.6493164  0.023636394    3.9129144    28372.625 
  147000    2.6486277  0.024778066    3.9294362    28372.625 
  148000    2.6516205  0.023357492    3.9074729    28372.625 
  149000    2.6428193  0.025572695    3.9059672    28372.625 
  150000    2.6392397  0.024543633    3.9060605    28372.625 
  151000    2.6489916  0.023419586    3.8934215    28372.625 
  152000    2.6447181  0.023849854    3.8952282    28372.625 
  153000    2.6492516  0.023751119    3.9119843    28372.625 
  154000     2.648646  0.022966488    3.9025343    28372.625 
  155000    2.6421641  0.023633926    3.8917239    28372.625 
  156000    2.6396401  0.023447064    3.8946379    28372.625 
  157000    2.6467864   0.02318694    3.8811911    28372.625 
  158000    2.6479655   0.02438331    3.9290083    28372.625 
  159000    2.6478873  0.023380052    3.9187612    28372.625 
  160000    2.6437635  0.023951595     3.902443    28372.625 
  161000    2.6549037  0.023564618    3.9181599    28372.625 
  162000     2.645603   0.02383944    3.9081708    28372.625 
  163000    2.6554396  0.024321488    3.9255031    28372.625 
  164000    2.6475399  0.024312555    3.9093603    28372.625 
  165000    2.6470385  0.023303831     3.911283    28372.625 
  166000    2.6451698  0.023851783     3.914009    28372.625 
  167000    2.6454889   0.02377681    3.9226364    28372.625 
  168000    2.6464494  0.023429402    3.9072472    28372.625 
  169000    2.6488417  0.023157528     3.886652    28372.625 
  170000    2.6482744  0.023988116    3.9188994    28372.625 
  171000    2.6457563    0.0240526    3.9082026    28372.625 
  172000    2.6473144  0.023542832    3.9173613    28372.625 
  173000    2.6412993  0.024240237    3.9020745    28372.625 
  174000    2.6436722  0.024020752    3.9086845    28372.625 
  175000    2.6474806  0.023193679    3.9099058    28372.625 
  176000    2.6480638   0.02391038    3.9098681    28372.625 
  177000    2.6496022  0.023407963    3.9077875    28372.625 
  178000    2.6403125   0.02384962    3.8909378    28372.625 
  179000    2.6466624  0.024197911    3.9000493    28372.625 
  180000    2.6472763  0.023354394    3.9129506    28372.625 
  181000    2.6525269  0.023838337    3.9244137    28372.625 
  182000    2.6463972  0.023920418    3.9025032    28372.625 
  183000    2.6504968  0.025721925     3.956521    28372.625 
  184000    2.6417573  0.025382984    3.9263724    28372.625 
  185000    2.6506987  0.023534297    3.9232679    28372.625 
  186000    2.6478834  0.023463295    3.9239611    28372.625 
  187000    2.6525249  0.023523055    3.9113929    28372.625 
  188000    2.6455577  0.024432601    3.9106625    28372.625 
  189000    2.6392149   0.02382793    3.9172414    28372.625 
  190000     2.651403   0.02367811    3.9143063    28372.625 
  191000    2.6472056  0.024111289    3.9159593    28372.625 
  192000    2.6356493  0.024434925    3.9022783    28372.625 
  193000    2.6457324  0.025446955    3.9179212    28372.625 
  194000    2.6480648  0.024100829     3.907544    28372.625 
  195000    2.6487861  0.023891435    3.9117958    28372.625 
  196000    2.6484069  0.024599302    3.9268799    28372.625 
  197000    2.6521248  0.023896233    3.8987351    28372.625 
  198000    2.6471821  0.024002276    3.9164003    28372.625 
  199000    2.6416865  0.023571405    3.8884035    28372.625 
  200000    2.6481228  0.023464814    3.9037771    28372.625 
Loop time of 3.74482 on 1 procs for 200000 steps with 256 atoms

Pair  time (%) = 0.886449 (23.6713)
Neigh time (%) = 1.30465 (34.8388)
Comm  time (%) = 0.465426 (12.4285)
Outpt time (%) = 0.00687456 (0.183575)
Other time (%) = 1.08142 (28.8778)

Nlocal:    256 ave 256 max 256 min
Histogram: 1 0 0 0 0 0 0 0 0 0
Nghost:    176 ave 176 max 176 min
Histogram: 1 0 0 0 0 0 0 0 0 0
Neighs:    123 ave 123 max 123 min
Histogram: 1 0 0 0 0 0 0 0 0 0

Total # of neighbors = 123
Ave neighs/atom = 0.480469
Neighbor list builds = 16050
Dangerous builds = 957
#	run             	1000
	unfix 			1
	unfix 			2

#------------ NVE -----------------------------------------------------------------------------

	fix 			1 all nve
	timestep		${dt}
	timestep		0.0020000000000000000416
	thermo_style  		custom step temp press etotal vol
	thermo			1000
	run             	100000
Memory usage per processor = 1.67356 Mbytes
Step Temp Press TotEng Volume 
  200000    2.6481228  0.023464814    3.9037771    28372.625 
  201000    2.6045487  0.027452816    3.9037621    28372.625 
  202000     2.651117  0.023567638    3.9037704    28372.625 
  203000    2.6329417  0.025274657    3.9037794    28372.625 
  204000    2.6419343  0.024182786    3.9037496    28372.625 
  205000    2.6427818  0.024091341    3.9037801    28372.625 
  206000    2.6510687  0.023509374    3.9037789    28372.625 
  207000    2.6421099  0.023826446    3.9037713    28372.625 
  208000    2.6420542  0.024330882    3.9037684    28372.625 
  209000    2.6228665  0.024699333    3.9038106    28372.625 
  210000    2.6417017  0.023517487    3.9037819    28372.625 
  211000    2.6546481  0.024448532    3.9037634    28372.625 
  212000    2.6533188  0.024475149    3.9037651    28372.625 
  213000    2.6394966  0.024392843    3.9037863    28372.625 
  214000    2.6454438   0.02328129    3.9037579    28372.625 
  215000    2.6437211  0.023696852    3.9037844    28372.625 
  216000    2.6101317  0.026004539    3.9038587    28372.625 
  217000    2.6352585   0.02470238    3.9037802    28372.625 
  218000    2.6365573  0.024726684    3.9037782    28372.625 
  219000    2.6475514  0.023128583    3.9037686    28372.625 
  220000    2.6504409  0.024227351    3.9037714    28372.625 
  221000    2.6401052  0.023404864    3.9037756    28372.625 
  222000    2.6444052  0.023218781    3.9037774    28372.625 
  223000    2.6453827  0.024346648    3.9037918    28372.625 
  224000    2.6543178  0.023295799    3.9037818    28372.625 
  225000    2.6505602  0.023460804    3.9037836    28372.625 
  226000    2.6352795    0.0241511    3.9037705    28372.625 
  227000    2.6439056  0.023734872    3.9037843    28372.625 
  228000    2.6402126   0.02350887    3.9037907    28372.625 
  229000    2.6437044  0.024025514    3.9037935    28372.625 
  230000    2.6362356  0.024365141    3.9037841    28372.625 
  231000    2.6474911  0.023967126    3.9037606    28372.625 
  232000    2.6333456  0.024945863    3.9037621    28372.625 
  233000    2.6486054  0.023247678    3.9037943    28372.625 
  234000    2.6425024  0.023435829    3.9037997    28372.625 
  235000    2.6395434  0.023912586    3.9038016    28372.625 
  236000    2.6137221  0.025554874    3.9038339    28372.625 
  237000    2.6471387  0.023338264    3.9038039    28372.625 
  238000    2.6367428  0.023760657    3.9038027    28372.625 
  239000    2.6587951  0.023667201    3.9037937    28372.625 
  240000    2.6448762  0.023219863    3.9037999    28372.625 
  241000    2.6429996  0.023867975    3.9037946    28372.625 
  242000    2.6551979  0.024116873    3.9037958    28372.625 
  243000    2.6330824  0.023323482    3.9038031    28372.625 
  244000    2.6524074  0.023106575    3.9038051    28372.625 
  245000    2.6544573  0.023781664     3.903793    28372.625 
  246000    2.6595184  0.023908378    3.9038014    28372.625 
  247000    2.6549913  0.024014073    3.9038212    28372.625 
  248000    2.6491433  0.024173968     3.903812    28372.625 
  249000    2.6400082  0.023762919    3.9038178    28372.625 
  250000    2.6260338  0.025561225    3.9038143    28372.625 
  251000    2.6511643  0.023098357    3.9038076    28372.625 
  252000    2.6425313  0.023826389    3.9038028    28372.625 
  253000    2.6430768  0.023438109    3.9038024    28372.625 
  254000    2.6441358  0.023697942    3.9038086    28372.625 
  255000    2.6417746  0.023680828    3.9037954    28372.625 
  256000    2.6533085  0.023407392    3.9037881    28372.625 
  257000    2.6587275  0.023384179     3.903788    28372.625 
  258000    2.6450668  0.023766355    3.9037959    28372.625 
  259000    2.6362367  0.023830974    3.9037949    28372.625 
  260000    2.6413822  0.023172303    3.9038054    28372.625 
  261000    2.6551892   0.02381863    3.9037973    28372.625 
  262000    2.6385387  0.023541862    3.9038117    28372.625 
  263000    2.6420587  0.023951277     3.903799    28372.625 
  264000    2.6463603  0.023299395    3.9038015    28372.625 
  265000    2.6563675  0.023869085    3.9037793    28372.625 
  266000    2.6332856  0.024119055     3.903796    28372.625 
  267000    2.6452277  0.023950847    3.9037941    28372.625 
  268000     2.644793  0.023532414    3.9037994    28372.625 
  269000    2.6228638  0.025482543    3.9038296    28372.625 
  270000    2.6368859  0.023747324    3.9038124    28372.625 
  271000    2.6424701  0.023747966      3.90382    28372.625 
  272000    2.6367087  0.023782508     3.903798    28372.625 
  273000     2.637346  0.023278228    3.9038219    28372.625 
  274000    2.6446499  0.023178098     3.903822    28372.625 
  275000    2.6357469  0.024644783    3.9038298    28372.625 
  276000    2.6408031  0.024152215    3.9038069    28372.625 
  277000    2.6184462  0.024439819    3.9038508    28372.625 
  278000    2.6353454  0.024186473    3.9038254    28372.625 
  279000    2.6535897  0.023280793    3.9038349    28372.625 
  280000    2.6448776  0.023332841     3.903835    28372.625 
  281000    2.6367692  0.023462234    3.9038342    28372.625 
  282000    2.6385969  0.023517375    3.9038256    28372.625 
  283000     2.646213  0.023985367    3.9038308    28372.625 
  284000    2.6529288  0.023445165    3.9038235    28372.625 
  285000    2.6606809  0.023885367    3.9038137    28372.625 
  286000    2.6402597  0.023408592    3.9038226    28372.625 
  287000    2.6460653  0.023833548    3.9038225    28372.625 
  288000     2.634044  0.023617336    3.9038151    28372.625 
  289000    2.6268511  0.024622215    3.9037965    28372.625 
  290000    2.6384049  0.023939221    3.9038173    28372.625 
  291000    2.6431632  0.024037306    3.9038229    28372.625 
  292000    2.6311845  0.025574966    3.9038215    28372.625 
  293000    2.6270333  0.024551219    3.9038063    28372.625 
  294000    2.6344689  0.024889031    3.9038371    28372.625 
  295000    2.6451502  0.023286372    3.9038286    28372.625 
  296000    2.6360557  0.023731481    3.9038203    28372.625 
  297000    2.6554003  0.023697424    3.9038414    28372.625 
  298000    2.6502159  0.023870087    3.9038388    28372.625 
  299000    2.6486247   0.02447702    3.9038518    28372.625 
  300000    2.6412276  0.023361712    3.9038426    28372.625 
Loop time of 1.72711 on 1 procs for 100000 steps with 256 atoms

Pair  time (%) = 0.367617 (21.2851)
Neigh time (%) = 0.65829 (38.1151)
Comm  time (%) = 0.234675 (13.5877)
Outpt time (%) = 0.00408244 (0.236374)
Other time (%) = 0.462445 (26.7756)

Nlocal:    256 ave 256 max 256 min
Histogram: 1 0 0 0 0 0 0 0 0 0
Nghost:    165 ave 165 max 165 min
Histogram: 1 0 0 0 0 0 0 0 0 0
Neighs:    124 ave 124 max 124 min
Histogram: 1 0 0 0 0 0 0 0 0 0

Total # of neighbors = 124
Ave neighs/atom = 0.484375
Neighbor list builds = 8098
Dangerous builds = 0
#	run             	10000
	unfix 			1

#------------ kappa -------------------------------------------------------------------------
log 	log_kappa_${iseed}.lammps
log 	log_kappa_1.lammps
