	reset_timestep  	0
	fix 			1 all nve
	compute   		myKE all ke/atom
	compute   		myPE all pe/atom
	compute   		myStress all stress/atom virial
	compute   		flux all heat/flux myKE myPE myStress
	variable  		Jx equal c_flux[1]/vol
	variable  		Jy equal c_flux[2]/vol
	variable  		Jz equal c_flux[3]/vol
	fix       		JJ all ave/correlate $s $p $d c_flux[1] c_flux[2] c_flux[3] type auto file J0Jt_${iseed}.dat ave running
	fix       		JJ all ave/correlate 5 $p $d c_flux[1] c_flux[2] c_flux[3] type auto file J0Jt_${iseed}.dat ave running
	fix       		JJ all ave/correlate 5 200000 $d c_flux[1] c_flux[2] c_flux[3] type auto file J0Jt_${iseed}.dat ave running
	fix       		JJ all ave/correlate 5 200000 1000000 c_flux[1] c_flux[2] c_flux[3] type auto file J0Jt_${iseed}.dat ave running
	fix       		JJ all ave/correlate 5 200000 1000000 c_flux[1] c_flux[2] c_flux[3] type auto file J0Jt_9.dat ave running
#	fix       		JJ all ave/correlate $s $p $d c_flux[1] c_flux[2] c_flux[3] type auto ave running
#	dump			JJ all custom 1000000 J0Jt.dat f_JJ[3] f_JJ[4] f_JJ[5]
	compute 		myDis all msd
	thermo_style 		custom step temp press vol c_myDis[4] v_Jx v_Jy v_Jz
	thermo			1000
	timestep		${dt}
	timestep		0.0020000000000000000416
	run			2000000
Memory usage per processor = 3.08201 Mbytes
Step Temp Press Volume myDis[4] Jx Jy Jz 
       0    2.6702672  0.023888895    28372.625            0 0.0010162082  0.001620311 0.0021705784 
    1000    2.6808671  0.023784601    28372.625    30.973086 0.0019773847 0.0034144252 0.0038645689 
    2000    2.6751381  0.023534719    28372.625    116.79337 0.0025281916 0.0028893481 0.00025966442 
    3000    2.6818797  0.024036897    28372.625    249.08634 0.0035103995 0.00083177924 0.0021318512 
    4000    2.6711809  0.025404428    28372.625    421.16709 0.0032137735 -0.002257443 -0.0024814467 
    5000    2.6857739  0.023592652    28372.625    624.40233 0.0022725867  0.004056737 -0.002228861 
    6000    2.6797152  0.023835444    28372.625    869.87099  0.003052535 0.0065469542 -0.0021593112 
    7000    2.6810859  0.023617423    28372.625    1141.3903 0.00068777131 0.0013272121 -0.0029056299 
    8000     2.671731   0.02520504    28372.625     1425.014 0.0049455612 0.0042666784 -0.0040952123 
    9000    2.6742814    0.0240549    28372.625    1725.9775 0.0012305013 0.0025574685 -0.0042609776 
   10000    2.6848978  0.024108582    28372.625    2035.8892 -0.00065355994 0.0016628651 -0.0018065934 
   11000    2.6745004  0.023762214    28372.625    2352.0773 0.0012532802 0.0010949985 -0.0014626168 
   12000    2.6782147  0.023643673    28372.625    2684.0298 0.00065631987 -0.0039365667 0.00019324532 
   13000    2.6778703  0.023786814    28372.625    3045.8867 0.0021013854 -0.0061228904 -0.0021253789 
   14000    2.6839409  0.023499176    28372.625    3436.3999 8.9291481e-05 -0.0051249923 -0.0017272353 
   15000    2.6750467  0.024973619    28372.625     3837.896 -0.0012541092 -0.0033247107 0.0017920227 
   16000    2.6794607   0.02344987    28372.625    4237.7135 -0.00066756219 -0.0019362782 7.5076393e-05 
   17000    2.6791574  0.023492998    28372.625     4647.618 -0.0021992845 -0.0037720912 0.0013846743 
   18000    2.6767487  0.023529299    28372.625    5094.9555 0.00022106885 -0.0036721346 0.00033314583 
   19000     2.680009  0.023872405    28372.625    5553.9869 -0.0018897556 -0.0026881316 0.0021617817 
   20000     2.667348  0.023436958    28372.625    6003.9498 -0.0025298837 -0.0013888398 0.00099778323 
   21000    2.6791764  0.024091534    28372.625    6470.0316 -0.0037292025 -0.0017907826 0.0015239577 
   22000    2.6957894  0.023912816    28372.625    6942.9086 -0.0020026361 -0.0043386374 0.0025132689 
   23000    2.6814273  0.023321074    28372.625    7404.1202 0.00011091943 -0.0028239288 0.0032796911 
   24000    2.6838661  0.023936528    28372.625    7896.6929 -0.0010577777 -0.0019452213 0.00087095578 
   25000    2.6718775  0.024713076    28372.625    8400.6455 -0.0023113742 0.0020091465 -0.0035247096 
   26000    2.6733217  0.023529507    28372.625    8917.4771 -0.0010714828 -1.9483408e-05 -0.0039525134 
   27000    2.6739598  0.023588476    28372.625    9425.0754 -2.2706466e-05 0.0040580149 -0.0026107795 
   28000    2.6805088   0.02367481    28372.625    9913.9461 0.0015953557 0.0042185674 -0.003845475 
   29000    2.6759474  0.023537664    28372.625    10421.199 0.0032633675 0.0027798198 -0.002060236 
   30000    2.6826608  0.023318241    28372.625    10945.824  0.003304247 0.0044511003 -0.0049069794 
   31000    2.6875673  0.024395868    28372.625    11426.221 0.0018254994 0.0059086335 -0.0063405079 
   32000    2.6849507  0.023978392    28372.625     11900.67  0.001474754 0.0084883012 -0.0055695974 
   33000    2.6889129  0.024047033    28372.625    12380.386 0.00016324296 0.0095412372 -0.0066660033 
   34000    2.6821895  0.024056539    28372.625    12860.596 -0.00057842431 0.0055907151 -0.0053541116 
   35000    2.6861263  0.023782537    28372.625    13377.397 -0.0019439796 0.0055346439 -0.0029763467 
   36000    2.6833369  0.023601491    28372.625     13937.89 -0.0022984812 0.0082929887 -0.0025937699 
   37000     2.672595  0.024071097    28372.625    14498.463 -0.0024585196 0.0056451181 0.0011271707 
   38000     2.680439  0.023767173    28372.625    15046.997 -0.00027525508 0.0066228602 0.0021187974 
   39000    2.6650661  0.025955529    28372.625    15567.458 -0.0011734362  0.008897098 -0.00080020925 
   40000    2.6848613  0.023332754    28372.625    16029.727 -0.0014140454 0.0083895893 -0.0038408464 
   41000    2.6627831   0.02379419    28372.625    16479.579 0.00068495077 0.0074846729 -0.0014903955 
   42000    2.6678476  0.023990523    28372.625    16913.134 0.0013978082 0.0059289221 -0.0046098428 
   43000    2.6622622  0.024106719    28372.625    17345.523 0.0034616789 0.0037390612 -0.0018516448 
   44000    2.6893777  0.024474912    28372.625    17809.266  0.003603945 0.0020810755 -0.0024897533 
   45000    2.6636172  0.023820992    28372.625      18274.5 0.0045925539 0.0017374886 -0.0028410923 
   46000    2.6749368  0.023974044    28372.625    18743.391 0.0051490969  0.007198747    -0.003439 
   47000    2.6576074  0.024664156    28372.625     19187.26  0.001551874 0.0016592177 -0.0075266596 
   48000     2.670327  0.023551649    28372.625    19651.158 0.0018691899 0.00059273417 -0.0079049074 
   49000     2.681056   0.02407371    28372.625        20138 0.0020890486 0.0011757697 -0.0063593081 
   50000    2.6677611  0.023982335    28372.625     20573.04 -0.0015305235 -2.3691684e-05 -0.0073412234 
   51000    2.6845751  0.023879121    28372.625    21007.223 0.0027712564 -0.003621254 -0.0062884181 
   52000    2.6814438  0.023737699    28372.625    21415.694 0.00095814426 -0.0043963961 -0.0035694847 
   53000    2.6716352  0.024440294    28372.625     21847.53 0.0042979989 -0.0019950087 -0.0026934797 
   54000    2.6895532  0.023474246    28372.625    22279.122 0.0025003377 -0.006171333 -0.004059497 
   55000    2.6548777  0.025202143    28372.625    22695.275  0.001778065 -0.00098759669 -0.0028055876 
   56000     2.685048  0.024081959    28372.625    23104.846 0.0010509553 -0.0020251297 -0.0001636968 
   57000    2.6777286  0.024008136    28372.625    23533.738 0.0016459193 -0.001363787 -0.0020778392 
   58000    2.6821019  0.023772478    28372.625    24003.797 -0.00055360903 -0.0023913561 -0.0020223436 
   59000    2.6686856  0.023932372    28372.625    24440.145 -0.000523836 -0.0055970677 -0.0024239167 
   60000      2.66587  0.025065959    28372.625    24904.897 0.0042954516 -0.0063656867 -0.0033492804 
   61000    2.6731204   0.02378063    28372.625    25362.161 0.0018592117 -0.0081771314 0.0011123527 
   62000    2.6691819  0.025189947    28372.625    25838.901 0.0031329187 -0.0048666649 0.0027602513 
   63000    2.6799443  0.024207669    28372.625    26317.559 0.0037539324 -0.0082368038 0.0024973669 
   64000    2.6744577  0.023843339    28372.625    26839.841 0.0017952704 6.3059161e-05 -0.0022083394 
   65000    2.6923414  0.024176676    28372.625    27417.381 0.00094906229 0.0010740745 0.00099147626 
   66000    2.6824364   0.02427812    28372.625    28017.062 0.0012259139 0.0022872329 0.0020475403 
   67000    2.6901473  0.023997828    28372.625    28648.416 0.0036673625  0.002819596 -0.0002897989 
   68000    2.6871654  0.023561146    28372.625    29292.075 0.0045522223 0.0020599125 -0.0037403113 
   69000    2.6845873  0.023878909    28372.625    29942.032 0.0061709829 0.0034568357 -0.00080386212 
   70000    2.6840857  0.023996631    28372.625    30607.012 0.0036502048 0.0055923459 0.00042900927 
   71000    2.6784999   0.02425261    28372.625    31295.186 0.0040600443 0.0065829405 -0.00034363657 
   72000    2.6794358  0.023976847    28372.625    31947.294 0.0066953123 0.0033898836 0.0014711225 
   73000    2.6785003  0.023817993    28372.625    32582.097 0.0043676359 0.0041024277 0.0014299505 
   74000    2.6885842  0.023691179    28372.625    33223.764  0.004688492 0.0037394442 0.0017995231 
   75000    2.6858651  0.024206865    28372.625    33780.028  0.001329875 0.0017409864 0.00088694358 
   76000    2.6859332  0.024385642    28372.625    34366.718 -0.00016684589 0.00013484404 0.00031878664 
   77000    2.6671426  0.023585992    28372.625    34937.331 0.00089989651 0.00083355236 -0.0022445089 
   78000    2.6750402  0.024508067    28372.625    35516.512 -0.00011643776 0.00084745308 0.00018205292 
   79000    2.6779625  0.023727506    28372.625    36118.535 -0.002183743 0.0055705198 0.0011144369 
   80000    2.6877648  0.024649978    28372.625    36736.151 -0.0036221332 0.0060690178 0.0016068989 
   81000    2.6781333  0.023929459    28372.625    37356.349 -0.0015144205 0.0058695814 0.0017717983 
   82000    2.6841954  0.023466288    28372.625    37963.546 -0.00033147959 0.0045919277 0.0036559823 
   83000    2.6724415  0.023482054    28372.625    38573.611 -0.0019656692 0.0029870678 0.00095887107 
   84000    2.6827523  0.024840274    28372.625    39121.703 -0.0017646001 0.0011071156 0.0013669392 
   85000    2.6599603  0.025239467    28372.625    39569.974 0.0021168364 -0.00091372058  0.002991347 
   86000    2.6859012  0.024063636    28372.625    39980.829 0.00076856078 -0.002541344 0.0015138629 
   87000    2.6898071  0.023858104    28372.625    40447.268 -0.0038910118 7.0944089e-05 0.00027121665 
   88000    2.6850465  0.023446938    28372.625    40928.751 -0.0034604935 -0.00097476216  0.003325814 
   89000    2.6833052  0.024619855    28372.625    41415.044 -0.001637016 -0.003638466 0.0047893192 
   90000    2.6701016  0.024646272    28372.625    41915.894 -0.00057198373 -0.0031397181  0.004970069 
   91000    2.6874212  0.023422421    28372.625    42413.679 0.0013239355 0.00014186578 0.0079657108 
   92000    2.6751867  0.024233786    28372.625     42945.14 0.00041589153 8.0412576e-05 0.0052419926 
   93000     2.690719  0.023795674    28372.625     43502.03  0.002673523 0.0030693738 0.0017301888 
   94000    2.6762468  0.023791585    28372.625    44002.877 0.0022105193 0.0050424467 0.0010113605 
   95000    2.6748883  0.024122935    28372.625    44459.039 -4.0704827e-06  0.004643154 8.3344475e-05 
   96000    2.6661279  0.023486002    28372.625    44961.357 0.0026616688 0.0043738125 0.00046633451 
   97000    2.6700849   0.02409452    28372.625    45488.124 0.0053410921 0.0020025161 0.0012893905 
   98000    2.6841655  0.023673525    28372.625    45986.331 0.0052185317 0.0040561559 0.0017410024 
   99000    2.6656737  0.024105178    28372.625     46430.22 0.0027634343 -0.00026528941 0.0019807664 
  100000     2.685448  0.023848409    28372.625    46890.407 0.0054876216 -2.767912e-05 0.00084369061 
  101000    2.6813602  0.023659503    28372.625    47420.236 0.0049833826 -0.0018238006  0.001347577 
  102000    2.6722522    0.0244401    28372.625    47950.922 0.0051947404 -0.0047204731 0.00089077166 
  103000    2.6773124  0.023714884    28372.625    48514.013 0.0024858895 -0.0020087712  0.001328839 
  104000    2.6717657  0.023991363    28372.625    49158.702 0.0020249566 0.00027943654 -0.00089749169 
  105000    2.6936112  0.024609447    28372.625    49839.637 0.0014273286 -0.00073820014  0.003038776 
  106000    2.6826687  0.024177801    28372.625    50457.616 0.00036444951 -0.0011209145 0.0080099382 
  107000    2.6817825  0.023734282    28372.625    51059.223 -0.0022812378 0.0013658684 0.0076561883 
  108000    2.6776026  0.025359447    28372.625     51705.86 0.0062929543 0.0031500061 0.0030293446 
  109000    2.6800491  0.023565534    28372.625    52281.587  0.005905053 0.0020398484 0.0014374475 
  110000    2.6834059  0.023708549    28372.625    52732.369 0.0052180974 0.0021957549 0.00067569102 
  111000    2.6920541  0.023759187    28372.625    53193.843 0.0089514644 0.0016802807 0.0030110139 
  112000    2.6824253  0.024496831    28372.625    53578.661 0.0089904259 0.0039429062 0.00060102117 
  113000    2.6824391  0.023732829    28372.625    53935.859 0.0094287998 0.00096804201 -0.0025103363 
  114000    2.6805758  0.024142136    28372.625    54286.855  0.012643088 -0.0043036578 -0.0020006361 
  115000    2.6661153   0.02442242    28372.625    54679.152  0.010947399 -0.0049189934 -0.005066115 
  116000    2.6724461  0.023834395    28372.625    55048.448 0.0091823584 -0.0063300481 -0.0035167743 
  117000    2.6756085  0.023771013    28372.625    55388.469 0.0045658617 -0.0048770471 -0.0080163317 
  118000    2.6883452  0.023594763    28372.625     55681.68 0.0049424385 -0.0083028647 -0.0069513798 
  119000    2.6942697  0.023794646    28372.625    55983.999 8.0626046e-05 -0.0059740075 -0.007705745 
  120000    2.6896426  0.023546732    28372.625    56306.419 -0.00027667408 -0.0060888911 -0.0050638516 
  121000    2.6813748  0.023560039    28372.625    56651.563 -0.0019821293 -0.0032638767 -0.0055737731 
  122000    2.6464659  0.025689029    28372.625    56963.624 -0.006899927 -0.00056782193 -0.0076252393 
  123000    2.6688519  0.023831494    28372.625     57301.06 4.9679889e-06 0.0020886415 -0.0051269941 
  124000    2.6746047  0.024042775    28372.625    57696.583 -0.0011351201 0.0019557783 -0.00010520856 
  125000    2.6910507  0.023337142    28372.625    58120.709 -0.00072755332 0.0041287841 -0.00019724224 
  126000    2.6878508  0.023899129    28372.625    58526.182 -0.0010544246 1.2472964e-05 0.00013200167 
  127000    2.6820489  0.023698375    28372.625    58953.514 -0.0030731968 -0.00071732524 0.00081159925 
  128000    2.6693904  0.024103449    28372.625    59319.986 -0.00090685919 -0.0025585833 -0.0010377265 
  129000    2.6743033  0.024914766    28372.625    59744.167 -0.0016670512 -0.00076796658 0.0014575282 
  130000     2.689135  0.023423553    28372.625    60276.749 -0.0026917124 0.0018996549 0.0027121666 
  131000    2.6655696  0.024925301    28372.625    60892.886 -0.0059774155 -0.0020656631 0.0032541109 
  132000    2.6781707   0.02361004    28372.625    61512.649 -0.0024142034 -0.0012329103 0.0067394448 
  133000     2.680805  0.023848095    28372.625     62121.76 -0.0019795466 0.0015572638 0.0064770626 
  134000    2.6923474  0.023375975    28372.625    62728.544 -0.0028469319 0.0023735068 0.0034101742 
  135000    2.6742644   0.02516091    28372.625    63238.062 -0.0022875598 -0.0015257326 0.0092794935 
  136000    2.6776415  0.023811647    28372.625    63622.106 -0.0032558007 -0.0025036402 0.0078134602 
  137000    2.6873519  0.023640552    28372.625    63935.531 -0.0031753481 -0.0039432592 0.0061795791 
  138000    2.6673517  0.023488989    28372.625    64269.063 -0.004356691 -0.0034208017 0.0049028863 
  139000    2.6761382  0.023740173    28372.625    64650.834 -0.0033791014 -0.0053537219 0.0084958841 
  140000    2.6771308  0.023997018    28372.625    65040.609 -0.0043190399 -0.0062357713 0.0068707425 
  141000    2.6798399  0.024801522    28372.625    65488.943 -0.0034600222 -0.006706236 0.0053426768 
  142000    2.6825271  0.023745955    28372.625    65920.816 -0.0027536113 -0.0050603852 0.0064913797 
  143000    2.6775998  0.023458672    28372.625     66308.47 -0.000337804 -0.0055617178 0.0035993109 
  144000    2.6814752  0.023641668    28372.625    66683.016 -0.0040242736 -0.0050489454 0.0055495202 
  145000    2.6859565  0.023359711    28372.625    67199.724 -0.0041927549 -0.0052000271  0.005549685 
  146000    2.6824457   0.02344864    28372.625    67743.407 -0.0026139847 -0.0062476498 0.0030539641 
  147000    2.6811258   0.02449221    28372.625    68305.184 -0.00043412391 -0.0025322264 0.00069857701 
  148000    2.6756102  0.025677383    28372.625    68876.744 -0.0012593452 0.00017053406 -0.00030253453 
  149000    2.6767364  0.023925187    28372.625     69398.51 0.0024430007 -0.0022289839 0.0015025973 
  150000    2.6832805   0.02400743    28372.625    69851.319 0.0015774842 -0.0027936924 0.0005816217 
  151000    2.6892058  0.023849571    28372.625    70256.205 0.0040942755 -0.0019842509 0.0018825808 
  152000    2.6794726  0.023990872    28372.625    70604.941 0.0039247357 -0.00070711564 0.0026631197 
  153000    2.6891206  0.023804498    28372.625    70979.169 0.0057301157 -0.0015789715 0.0024064543 
  154000    2.7018066  0.023763918    28372.625    71420.898 0.0034463283 -0.0004855476 0.0027354226 
  155000     2.670604  0.024617684    28372.625    71864.349 0.0073694835 0.0016349281 0.0040397724 
  156000    2.6969588  0.023319072    28372.625    72248.983 0.0055541636 -0.0012059069 0.0022802178 
  157000    2.6832321  0.023471723    28372.625    72651.863 0.0033694299 -0.001092733 0.0013580435 
  158000    2.6756708  0.023666804    28372.625    73081.315 0.0019227031 -0.0019780682 -0.002311246 
  159000    2.6824162   0.02349286    28372.625    73497.521 -0.0012730385 -0.001083696 -0.0028892122 
  160000    2.6789685  0.023727001    28372.625    73991.529 -0.0022466436 0.0032026214 -0.0044972939 
  161000    2.6904996  0.024143925    28372.625    74530.703 -0.0023286773 0.0026774106 -0.0058324193 
  162000    2.6844346  0.024274324    28372.625    75121.986 -0.0016294097 0.0033946069 -0.0094708912 
  163000    2.6713788  0.024788631    28372.625    75722.151 0.0025919979 0.00082421015 -0.0070282836 
  164000    2.6747246  0.023782772    28372.625    76284.446 0.0031263508 -0.0013300823 -0.0060142591 
  165000    2.6786617  0.023933574    28372.625    76866.946 0.0052214147 -0.0015674365 -0.0011736909 
  166000    2.6838854  0.024543056    28372.625    77453.763 0.0058027725 -0.0019315049 -0.00036052294 
  167000    2.6864799  0.023983977    28372.625    77999.034 0.0034353515 0.00048285381 -0.00065028275 
  168000    2.6957195  0.023825595    28372.625    78506.518  0.006227948 -5.8589045e-05 8.1295677e-05 
  169000    2.6715753  0.024476695    28372.625    79016.299 0.0051596012 0.0017481926 0.0031402813 
  170000    2.6701742  0.024414242    28372.625    79454.344 0.0031465284 0.0035223772 0.0039180422 
  171000    2.6895963  0.024660281    28372.625    79863.139  0.004743052 0.0019631136  0.005776127 
  172000     2.672617  0.025532738    28372.625    80257.183   0.00336229 -0.002281765 0.0037405195 
  173000    2.6791546  0.024304857    28372.625    80695.389 0.0025985116 0.0025227278 0.0064452553 
  174000    2.6967027  0.023664653    28372.625    81225.853  0.003644171 -0.0019282158 0.0042394139 
  175000     2.659594  0.026387913    28372.625    81762.822 -0.0015402826 -0.00075206443 0.0019430558 
  176000    2.6706942  0.023839132    28372.625    82271.699 0.00050825387 -0.0019794358 0.0034789002 
  177000    2.6758439  0.024134549    28372.625     82756.28 -0.00067146528 -0.0021014809 0.0035256744 
  178000    2.6715382  0.024176931    28372.625     83216.11 -3.6080935e-05 -0.0045462434 0.0067725716 
  179000    2.6859628  0.024011973    28372.625    83694.952 -0.0016110304 -0.0019829686 0.0031257208 
  180000    2.6909304  0.023610154    28372.625    84118.607 -0.0014014633 -0.0018137694 0.0032778192 
  181000    2.6749874  0.023372564    28372.625    84559.115 -0.00052602059 -0.00047149128 0.0026841781 
  182000    2.6724468  0.025254058    28372.625    84998.509 0.0016641479 -0.0013382365 0.0014313935 
  183000    2.6889659  0.024090206    28372.625    85494.078 -0.001000403 -0.003827503 0.0010340248 
  184000    2.6702979  0.024173998    28372.625    85979.233 5.2395317e-05 -0.0019789996 -0.00033284997 
  185000    2.6745205  0.024325146    28372.625     86493.63 0.0004696669 -0.0049418406 0.00032054752 
  186000    2.6773263  0.023527241    28372.625      87005.6 -0.00013206612 -0.0023592844 -0.00072811412 
  187000    2.6665542  0.024323683    28372.625    87519.443 0.0017567491 0.00084622487 -0.0046539888 
  188000    2.6793895  0.023503719    28372.625    88016.735 -0.0010454028 0.00062347435 -0.0027256282 
  189000    2.6744141  0.024193713    28372.625    88420.968 0.0022991959 0.00059531066 -0.0047633819 
  190000    2.6826186  0.023809111    28372.625    88778.251 0.0051725596 0.00045380684 -0.0019375301 
  191000    2.6800538   0.02375365    28372.625     89221.63  0.002189296 -0.0012531606 -0.0031059033 
  192000    2.6779125  0.024228648    28372.625     89677.85 0.0040454781 0.0015824666 -0.0039362614 
  193000    2.6829083  0.024183544    28372.625    90167.932 0.0024258718 0.0031594015 -0.00019817781 
  194000    2.6780486  0.023757077    28372.625    90759.695 0.0018149126 0.00049448954 -0.0039330011 
  195000    2.6843169  0.023740173    28372.625    91348.656 0.00059513538 -0.00038583567 0.0013899189 
  196000    2.6865293  0.023439612    28372.625    91889.791 0.00077858944 -0.0031308059 -0.00036447633 
  197000    2.6722605  0.025719858    28372.625    92422.302 0.0045600496 -0.002486137 0.0018644207 
  198000    2.6811206  0.023676977    28372.625     92896.07 0.0045808551 -0.0016366024 -0.001298288 
  199000    2.6706928  0.023994539    28372.625     93383.05 0.0029728859 -0.0019942874 -0.00025467779 
  200000    2.6734861  0.024030737    28372.625    93871.155 0.0041222853 -0.00015894976 -0.0025357711 
  201000    2.6888114  0.024413616    28372.625    94403.653 0.0041696865 -0.00060333039 -0.0016903456 
  202000    2.6841817  0.023794819    28372.625    95004.545 0.0027701576 0.0019987794 -0.0010732297 
  203000    2.6635514  0.025789959    28372.625    95661.227 0.0028011158 -0.002505207 0.0046705007 
  204000     2.669696   0.02359686    28372.625    96261.416 0.0053113828 0.0014733553 0.0046574319 
  205000    2.6692346   0.02455103    28372.625     96841.99 0.0026349811 -0.0013820656 0.0043328632 
  206000    2.6590069  0.024298195    28372.625    97432.903 0.0033078857 -0.0020177223 0.0010476734 
  207000    2.6744867  0.024400375    28372.625    98023.237 0.0057821248 -0.002250553 0.0021715098 
  208000     2.674802  0.023970159    28372.625    98541.957 0.0062131185 -0.0015118931 0.00086533426 
  209000    2.6769733  0.024861232    28372.625    99141.109 0.0085047988 -0.0026112972 -0.0001597222 
  210000    2.6796701  0.024469518    28372.625    99800.619 0.0066784228 0.0016733172 0.0023491639 
  211000    2.6715874  0.023735001    28372.625    100497.13 0.0064555811 -0.0029707907  0.004227867 
  212000    2.6723059  0.024742677    28372.625       101282 0.0067629012 -0.0036111177 0.0070838086 
  213000    2.6745413  0.024004053    28372.625    102045.19 0.0033276484 -0.00011537648 0.0052473585 
  214000    2.6606731  0.024363717    28372.625    102772.35 0.0043867936 0.00070591529 -0.00053012657 
  215000    2.6843755  0.023652237    28372.625     103505.2 0.0033008009 0.0060652083 0.0045975696 
  216000    2.6640387  0.024296454    28372.625     104343.1 0.0048051055 0.0033515723 0.0044815099 
  217000    2.6725192  0.023941404    28372.625    105200.58 0.0052519001 0.0052154569 0.0039056763 
  218000    2.6561517  0.024819886    28372.625    106017.44 0.0034055408 0.0050720614 0.0019823794 
  219000    2.6659812  0.023678418    28372.625    106776.52 0.00025189506 0.0068385906 0.0017795076 
  220000    2.6823166  0.023418544    28372.625    107479.83 -0.0019032501 0.0069552049   0.00105668 
  221000    2.6802674  0.024484999    28372.625    108193.32 0.0043725048 0.0056184952  0.002799197 
  222000    2.6795331  0.024701875    28372.625    108937.09  0.003076418 0.0011456371  0.003771806 
  223000    2.6715637  0.023468224    28372.625    109768.97 0.0064254982 -0.00081230932 0.0027196437 
  224000    2.6733841  0.023767619    28372.625    110582.89 0.0036303648 -0.007185874 0.0024355355 
  225000    2.6652436  0.024038518    28372.625    111299.71 0.0055451111 -0.0071203725 0.0010062943 
  226000    2.6738829  0.023972737    28372.625     111958.3 0.0075526587 -0.0028964359 -0.0026832845 
  227000    2.6758672  0.024273509    28372.625    112527.51 0.0076057653 -0.0051068096 -0.0037474131 
  228000    2.6700898  0.024179666    28372.625    113130.14 0.0054657295 -0.0049037326 -0.0013562649 
  229000    2.6792138  0.024001022    28372.625    113888.36 0.0040930644 -0.0037947036 0.00071995883 
  230000    2.6835197  0.024186628    28372.625    114677.46 0.0020040368 -0.0052470917 0.00046680976 
  231000     2.681469  0.023726646    28372.625    115414.87 0.0038314781 -0.0042205577 0.00089477855 
  232000    2.6759683  0.024926412    28372.625    116039.24 0.0059453639 -0.005992202 -0.0010370573 
  233000    2.6717504  0.024618602    28372.625    116598.82 0.0040510812 -0.0006455639 0.0032977399 
  234000    2.6671153  0.023654517    28372.625    117074.62 0.0057829652 -0.00077713137 0.0014586884 
  235000    2.6739374  0.024398446    28372.625    117490.41 0.0035201576 -0.00033270614 0.0051344432 
  236000    2.6809489  0.023449257    28372.625    117867.76 0.0079771951 0.0011170044  0.003734506 
  237000    2.6846337   0.02346916    28372.625    118294.14 0.0076113712 0.00028577848 0.0045564788 
  238000    2.6872801  0.024237965    28372.625    118735.28 0.0061657643 -0.0011213564 0.0039184585 
  239000    2.6606572  0.025152935    28372.625     119216.6 0.0054655429 0.00080188933 0.0024021214 
  240000    2.6859525  0.023753107    28372.625    119800.56 0.0040294654 0.00098186802 0.0036808516 
  241000    2.6879183    0.0237486    28372.625    120340.81 0.0026034433 0.0028503738  0.005208615 
  242000    2.6751347  0.024583297    28372.625     120850.2 0.0023582858 0.0028066998 0.0033230709 
  243000    2.6606144  0.024312241    28372.625    121306.54 0.0041390392 0.0026306071 0.0044722298 
  244000    2.6776207  0.023718212    28372.625    121742.49 0.0041226922 0.0024102452 0.0049919625 
  245000    2.6769668  0.024043206    28372.625    122225.41 0.0073532843 0.00028960194 0.0062113735 
  246000    2.6718929  0.024051249    28372.625    122695.42 0.0054021035 0.00079050478 0.0052582512 
  247000    2.6846633  0.023880603    28372.625    123133.02 0.0036758004 -0.00041085427 0.0056585808 
  248000    2.6877733  0.024100233    28372.625    123542.19 0.0017251134 -0.0032810727 0.0037962362 
  249000    2.6941134  0.023685727    28372.625    123911.97 -9.0573006e-05 -0.0034448551 0.0029094234 
  250000    2.6889459  0.023575441    28372.625     124195.3 0.0022179317 -0.0032023944 0.0050049618 
  251000    2.6798398  0.024569187    28372.625    124363.62 -0.0034268715 0.0057042185 0.0090285552 
  252000    2.6871777  0.023708558    28372.625    124557.98 -0.0026511595 0.0014111563 0.00065326835 
  253000    2.6899429   0.02394504    28372.625    124850.06 -0.0014623608 -0.0018388579 -0.0006186136 
  254000    2.6683003  0.023622824    28372.625    125256.35 -0.0013505422 -0.0026536626 -9.0608151e-05 
  255000    2.6711253  0.023951565    28372.625    125693.92 -0.0010750121 -0.0021386704 0.0050837251 
  256000    2.6719685   0.02383152    28372.625    126089.76 -0.0029636405 -0.0028254891 0.0054240855 
  257000    2.6641679  0.025118926    28372.625    126449.93 -0.0013877825 -0.0034842868 0.0059254097 
  258000    2.6818465   0.02357923    28372.625    126836.87 -0.001691898 -0.0019030945 0.0025148792 
  259000    2.6605273  0.024458223    28372.625    127252.39 -0.0011382213 -0.0040537604 0.0031246978 
  260000    2.6821706  0.023725187    28372.625    127781.79 0.00070735164 -0.0050838745 0.0048284381 
  261000    2.6751026  0.024222737    28372.625    128341.51 -0.0011922385 -0.005113576 0.0041420818 
  262000    2.6845983  0.023814897    28372.625     128796.4 0.0043601849 -0.00064415417 0.0033142462 
  263000    2.6792364  0.024850955    28372.625    129186.85 0.0037552199 -0.0024265206 -0.00053774459 
  264000    2.6775275  0.023513661    28372.625    129545.89 0.0039505289 -0.005238699 -0.0009619922 
  265000     2.679772  0.024788142    28372.625     129995.5 0.0032802437 -0.0018328169 -0.0026836759 
  266000    2.6814246   0.02360693    28372.625    130532.26 -0.0028068525 -0.0007525514 -0.00074901434 
  267000    2.6959698  0.024117225    28372.625    131106.31 0.00019301398  -0.00335059 -0.0013761732 
  268000    2.6842075   0.02369495    28372.625    131692.86 0.0019633793 -0.0043314981 -0.0016124376 
  269000    2.6848884  0.024026001    28372.625    132208.31 0.00051828736 -0.0056424911 -0.0043849285 
  270000    2.6897657  0.023903198    28372.625    132659.32 0.0014161137 -0.0028635873 -0.0083389495 
  271000    2.6780652  0.025495433    28372.625    133216.89 0.0054695253 -0.0039874853 -0.0081490418 
  272000    2.6634719  0.025084131    28372.625    133824.58 0.0040079847 -0.0062907642 -0.0059659093 
  273000    2.6827218  0.024066328    28372.625    134422.47  0.004829802 -0.003109744 -0.0040123072 
  274000    2.6749313  0.024618866    28372.625    135038.31 0.00089805516 -0.002911821 -0.0020417979 
  275000    2.6708702  0.024851644    28372.625    135708.59 -0.0002180351 0.0011009577 -0.0014118628 
  276000    2.6737069  0.024631523    28372.625    136298.26 0.0033527668 0.0011741574 -0.0053174545 
  277000    2.6734261  0.024202576    28372.625    136934.22 0.0088242151 0.00022875006 0.0015576195 
  278000    2.6806228  0.024508391    28372.625    137522.38  0.009359886 0.0045164267 -0.00055852945 
  279000    2.6845818   0.02326004    28372.625    138144.74  0.008222774 0.00025514461 0.00052859991 
  280000    2.6844207  0.024826557    28372.625    138886.78 0.0089207416 -0.00028541555 0.0015505593 
  281000    2.6738308  0.023537693    28372.625    139591.31 0.0067291312 -0.0014449241 0.0010732475 
  282000    2.6718557  0.023579746    28372.625    140339.28 0.0060862769 -0.0015805392 0.0019734019 
  283000     2.679492  0.023477819    28372.625    141087.03 0.0019138822 0.0015200881 -0.00049460643 
  284000    2.6778193  0.023887509    28372.625    141789.71 0.0016770018 0.0026855604 -0.0017554279 
  285000    2.6886084  0.023468018    28372.625    142490.82 -0.00020984559 8.568733e-05 -0.0017438874 
  286000    2.6760443  0.024630297    28372.625    143163.53 -0.001350201 0.0053689828 -5.3846222e-05 
  287000    2.6840087  0.023601282    28372.625    143721.43 -0.00041125995   0.00241969 -0.0037010118 
  288000    2.6768139  0.024287021    28372.625    144230.82 0.0013432816 0.0044430497 -0.0028052436 
  289000    2.6844502  0.023521617    28372.625    144759.83 0.0069555291 0.0028422702 -0.0064279041 
  290000    2.6841226  0.024468348    28372.625    145317.39 0.0051693015 0.0025008778 -0.0048958314 
  291000    2.6730582   0.02413948    28372.625    145902.44 0.0052004706 0.0013047878 -0.0016970131 
  292000    2.6713513  0.024576972    28372.625    146509.11 0.0052286816 -0.00055724963 -0.0014806887 
  293000    2.6682508  0.024105759    28372.625    147157.47 0.0031835082 0.0022144523 -0.0035268711 
  294000    2.6756448  0.024286971    28372.625    147782.79 5.4030745e-05 0.0018398337 -0.0024489463 
  295000    2.6827275  0.023501251    28372.625    148380.49 -0.0021527921 0.00095000342 -0.0012725907 
  296000    2.6849414  0.023281571    28372.625    148927.28 0.0020632701 -0.00075693494 -0.0021126026 
  297000    2.6788726  0.024211811    28372.625    149359.94 0.0016463777 -0.0015149268 -0.0025265802 
  298000     2.673384  0.024529875    28372.625    149779.88 0.00070619661 -0.0020751499 0.0011318062 
  299000    2.6818688   0.02381112    28372.625     150206.8 4.6852102e-05 0.00039342968 -0.00097265063 
  300000    2.6950729  0.023821545    28372.625    150711.08 0.0013519063  0.001030793 -0.00024167143 
  301000     2.679117  0.024626255    28372.625    151128.73 -0.00066698776 0.0041511336 -0.00087575103 
  302000     2.672781  0.024232891    28372.625    151624.92 0.0028122652 0.0010702233 -0.0003174181 
  303000    2.6830422  0.023401995    28372.625    152094.32 0.00072820809 -2.2961532e-06 -0.0034748933 
  304000    2.6794352  0.024580868    28372.625    152643.51 -0.00034842878 -0.0011960077 -0.0029163305 
  305000    2.6657847   0.02450894    28372.625    153143.57 -0.0030731145 -0.00011359014 -0.0055620895 
  306000    2.6670656  0.024095707    28372.625    153683.95 -0.0035641337 -0.00082950247 -0.0028362215 
  307000    2.6776102  0.023727457    28372.625    154288.92 0.00029974037 0.00068323212 0.00039274538 
  308000    2.6873975  0.023679709    28372.625    154955.37 0.0027273007  0.001959275 -2.3970536e-06 
  309000    2.6737181  0.024113567    28372.625    155569.56 -0.0012815809 -0.0016537947 0.0016952812 
  310000    2.6794065  0.023825793    28372.625    156214.86 -0.0030531816 0.00085858289 -0.0013362319 
  311000    2.6687496  0.023565076    28372.625    156824.17 -0.0015094774 -0.0047508681 -0.00096155453 
  312000    2.6780321  0.023521572    28372.625    157382.26 -6.0949177e-05 -0.0046640305 -0.0034220864 
  313000    2.6670084  0.025051894    28372.625    157833.44 -0.0029921813 -0.002646352 -0.0066025556 
  314000    2.6733172  0.023529666    28372.625    158303.55 0.0014998147 -0.0028984684 1.3566338e-07 
  315000    2.6727729  0.024137273    28372.625       158760 0.0010753931 -0.00061374774 0.0022063695 
  316000    2.6807711  0.023865444    28372.625    159275.69 -0.0016941828 -0.0021312614 0.00070851897 
  317000    2.6814434  0.023335025    28372.625    159668.99 -0.0025746573 -0.0025448891 0.0033817382 
  318000    2.6839284  0.024796252    28372.625    159965.71 0.0014124474  0.001830617 -0.0013992151 
  319000    2.6783131  0.024021878    28372.625     160192.7 -8.9484773e-05 -0.000953692 0.0040694446 
  320000    2.6858255  0.023773174    28372.625    160478.51 0.0021344403 0.0010533968 0.0017574012 
  321000    2.6777701  0.023453658    28372.625    160790.85 0.0059692759 0.0018593691 0.0014456347 
  322000    2.6638184   0.02490307    28372.625    161236.02 0.0083234022 0.00027277003 0.0029027736 
  323000    2.6760028  0.023666618    28372.625    161540.01 0.0052018452 -0.00033532966 -0.00014018641 
  324000        2.684  0.024297433    28372.625    161823.73 0.0046144977 -0.00099859421 0.0016145464 
  325000    2.6838226  0.024619593    28372.625    162071.42 0.0046159105 -0.00091575662 -0.00033945563 
  326000    2.6778271  0.023923276    28372.625    162264.38 0.0052961286 -0.00066333642 -0.0024078521 
  327000    2.6791326  0.024084863    28372.625    162285.78 0.0040195885 -0.0027472814 -0.0053632113 
  328000    2.6876076  0.023857346    28372.625    162327.47 0.0028745641 -0.001290409 -0.0070853282 
  329000    2.6755177  0.024526964    28372.625    162391.32 0.0011373261 -0.00084871424 -0.0056671376 
  330000    2.6652315  0.025035353    28372.625    162433.22 0.0015367624 0.00030301841 -0.0014089777 
  331000    2.6792239   0.02347091    28372.625    162496.87 0.0013021798 -0.00084845448 -0.002526272 
  332000    2.6820876  0.023490897    28372.625    162517.01 0.0008480157 -0.00039501663 -0.0037856044 
  333000    2.6798052  0.023791342    28372.625    162589.94 -0.00072753437 0.0025818236 -0.0062671527 
  334000    2.6703539   0.02378752    28372.625    162692.61 -0.00032419502 0.0032386735 -0.005146624 
  335000    2.6733974  0.024326675    28372.625    162863.56 -0.001288401 0.0050751249 -0.0062046659 
  336000    2.6739648  0.023843816    28372.625    163042.37 0.0004143161 0.0035882216 -0.0051726925 
  337000    2.6745177  0.024366799    28372.625    163322.02 -0.0006849763 0.0039151385  -0.00303343 
  338000    2.6807826  0.023626791    28372.625    163676.77 -0.0015448675 0.0025682171 -0.0020626881 
  339000    2.6892334  0.023601357    28372.625     164063.5 0.0020448043 0.0028121019 -0.0027908784 
  340000    2.6762519  0.024414906    28372.625    164447.13 0.00054249209  0.005824778 -2.9301675e-06 
  341000    2.6654115  0.024817496    28372.625    164696.93 0.0049887569 0.0076371574 -0.0041086831 
  342000    2.6804511  0.024693973    28372.625     164901.7 0.0057600953 0.00087709555 -0.0056846615 
  343000    2.6782791  0.025104207    28372.625    165037.89  0.010394874 0.0041461164 -0.010029964 
  344000    2.6797489  0.023475012    28372.625    165174.28 0.0053907102 0.0067688779 -0.0022039972 
  345000    2.6809944  0.023884291    28372.625    165336.92 0.0057262219 0.0072961056 -0.0039447808 
  346000    2.6627038  0.024440968    28372.625    165618.58  0.010154501 0.0042699276 0.0026381798 
  347000    2.6741787  0.023793865    28372.625     165945.7 0.0047881096 0.0025925826 -0.0086056512 
  348000    2.6756413  0.024051652    28372.625    166229.74 0.00079705619 -0.0017625222 -0.0067683144 
  349000     2.675032   0.02450634    28372.625    166613.22  0.001492675 -0.0030723518 -0.0084932626 
  350000    2.6721711  0.024803403    28372.625    167025.04 -0.0068356764 -0.0049092044 -0.013986857 
  351000    2.6897538  0.023907328    28372.625    167519.02 -0.0044535293 -0.00063906298 -0.009018785 
  352000    2.6762032  0.024367354    28372.625    167999.51 -0.0032299201 -0.002216366 -0.0093650343 
  353000    2.6751408  0.024370487    28372.625    168574.43 -0.0021592741 -0.002199324 -0.0090118409 
  354000    2.6891805  0.023862784    28372.625    169157.78 -0.0047542218 0.0040777782 -0.010408683 
  355000    2.6850635  0.023456055    28372.625    169603.88 -0.004409933 0.0030760628 -0.0078894922 
  356000    2.6810357  0.023613366    28372.625    170016.23 -0.0014252344 0.0042138152 -0.0073005692 
  357000    2.6748482  0.023909387    28372.625    170601.99 -0.0012104322 0.0051688033 -0.0055506098 
  358000    2.6769077  0.023379597    28372.625    171216.67 -0.00040815068 0.0077542401 -0.0055598036 
  359000    2.6674129  0.023701802    28372.625    171885.34 0.00087430541 0.0067566789 -0.0071286487 
  360000    2.6655231  0.024447211    28372.625    172660.01 0.00023021579 0.0038022837 -0.0025513764 
  361000    2.6723622  0.024071022    28372.625    173351.83 -0.0015663439 -0.00057460533 0.00089231366 
  362000    2.6770986  0.023783657    28372.625    174049.48 -0.0032742048 -0.0013936554 -0.00076642892 
  363000    2.6779446  0.024048175    28372.625    174646.77 -0.0061191188 -0.0016753276 0.00099564429 
  364000    2.6912189  0.023736618    28372.625    175258.38 -0.0050887303 -0.0052163556  0.002858014 
  365000    2.6716301  0.024665166    28372.625    175958.92 -0.0092478134 -0.0035948197 0.0055251213 
  366000    2.6905163   0.02347326    28372.625    176693.27 -0.003878102 -0.0026390529 0.00040589061 
  367000    2.6659616  0.024923969    28372.625    177250.31 -0.0023000662 -0.0024518284 0.0049292441 
  368000    2.6712775  0.024545066    28372.625    177742.23 -0.0029513071 -0.0024229195 0.00070597462 
  369000    2.6794554  0.023607862    28372.625    178178.93 -0.0052440412 -0.0023264103 -0.001535914 
  370000    2.6584399  0.024763949    28372.625    178633.01 -0.0047677974 -0.00085752427 -0.0020473764 
  371000    2.6841849  0.023998505    28372.625    179178.88 -0.00038155086 0.00085570405 -7.2432659e-05 
  372000    2.6895148  0.024022857    28372.625    179748.76 -0.00022758298 0.00051716024 -0.0023213053 
  373000    2.6804167  0.023542573    28372.625    180325.14 0.00087327418 -0.0012183833 -0.0028021916 
  374000    2.6757907   0.02391881    28372.625    180743.12 0.0019882252 -0.0019794877 -0.0042696476 
  375000     2.680657  0.023825872    28372.625    181108.73 0.0040227976 -0.0035010227 -0.0032707413 
  376000    2.6822048  0.024680027    28372.625    181495.72 0.0027093841 -0.0053262949 -0.0052191201 
  377000    2.6697501  0.024394955    28372.625    181869.68 -0.00096748095 -0.004218047 -0.0057629008 
  378000    2.6576543  0.024360987    28372.625    182173.27 -0.0014768799 -0.00045212885 -0.0069837781 
  379000    2.6745826  0.023409237    28372.625    182500.68 -0.0051303331 -0.0044579172 -0.0018967774 
  380000    2.6776161  0.024232272    28372.625    182908.59 -0.0025608349 -0.0068023314 -0.003228215 
  381000    2.6818248  0.023538495    28372.625    183348.58 -0.0035731954 -0.0064850247 -0.0019608638 
  382000    2.6837579  0.023551558    28372.625    183831.53 -0.0028911616 -0.0069160137 -0.0030578261 
  383000    2.6782293   0.02387688    28372.625    184277.17 0.0028228474 -0.00011054815 -0.0058233636 
  384000    2.6728854   0.02423101    28372.625     184825.4 0.0060029111 -0.0034323305 -0.0017094889 
  385000    2.6750869  0.023995487    28372.625    185415.24 0.0060686973 -0.0034567718 -0.001191513 
  386000    2.6862227  0.023991238    28372.625    185881.53 0.0038849089 -0.00052787104 -0.0018166578 
  387000    2.6938965  0.023244719    28372.625    186322.43 -0.0036916332 -0.0016894094 -0.0021674019 
  388000    2.6755479  0.024214252    28372.625    186650.47 -0.0042198368 -0.0012616975 -0.0031657048 
  389000    2.6859415  0.023664668    28372.625    186950.45 -0.0021939062 -0.0016478614 -0.0011248257 
  390000    2.6825577  0.023889467    28372.625    187207.54 -0.0012223553 8.9659684e-05 -0.0014050544 
  391000    2.6844716  0.023612762    28372.625    187471.38 -0.0033828142 0.00082529065 -0.0017759218 
  392000    2.6881448   0.02418183    28372.625     187673.9 -0.00026570332 -0.00021277218 5.1383746e-05 
  393000    2.6903551  0.023702132    28372.625    187870.37 0.0028100235 -0.0012300633 -0.00082146139 
  394000    2.6843192  0.024241673    28372.625    188166.53 0.0040551775  0.001482805 -0.004150243 
  395000    2.6738458  0.024855874    28372.625    188359.86 0.0052354189 0.0026460667 0.0017943724 
  396000    2.6749985  0.023445215    28372.625    188509.45 -0.00071865056 0.0026644598 0.0027333834 
  397000     2.685987  0.024338231    28372.625    188656.66 -0.0014090002 0.0026280804 0.0023424137 
  398000    2.6865185  0.024581074    28372.625    188871.78 -0.00069125804 -0.0002803368 0.0028394579 
  399000    2.6871815  0.024130047    28372.625    189102.64 -0.0027716097 0.0012747817 0.0040895813 
  400000    2.6916427  0.023460161    28372.625     189338.2 -0.0024151846 0.00020497922 0.0009759491 
  401000    2.6754622  0.024903193    28372.625    189524.92 -0.0028376063 0.0030602898 0.0019155641 
  402000    2.6852334  0.024463825    28372.625    189762.81 -0.0013948275 0.0012956443 0.0034262701 
  403000    2.6836381  0.024387993    28372.625    190059.87 -0.0053706064 0.0011783175 -0.0018171743 
  404000    2.6804486  0.023337742    28372.625    190415.34 -0.0056968608 0.0022736149 0.00048556202 
  405000    2.6772382  0.024172708    28372.625    190595.96 -0.0041964113 -1.1136015e-06 0.00032792793 
  406000    2.6802688  0.023597172    28372.625     190690.9 -0.0056543461 0.00088081478 -0.00084603434 
  407000    2.6757214  0.024062084    28372.625    190747.56 -0.0050015409 0.00019227545 -0.00017687865 
  408000    2.6719255  0.023962711    28372.625    190845.21 -0.0064290659 -0.0025652821 -0.00049364246 
  409000    2.6732917  0.023828768    28372.625    190973.74 -0.0060372889 -0.0044570449 -0.0028655672 
  410000     2.679856  0.024099263    28372.625    191145.76 -0.0062997307 -0.0024212166 -0.0054327525 
  411000    2.6812807  0.023589864    28372.625     191323.8 -0.0069716513 -0.00078195229 -0.0029596372 
  412000    2.6859607  0.024768732    28372.625    191637.51 -0.0086366358 0.0007130432 -0.0010261687 
  413000    2.6820381  0.023727588    28372.625    191989.98 -0.0037866622 -0.0020538729 -0.0052982935 
  414000    2.6682665  0.024301813    28372.625    192307.79 -0.0022522715 -0.0014933708 -0.0031626751 
  415000    2.6843888  0.023300811    28372.625    192616.82 0.0042122006 -0.0056344259 -0.005560578 
  416000    2.6894543   0.02474849    28372.625    192991.16 0.0073371411 -0.0082843172 -0.0089626247 
  417000    2.6869948  0.023390838    28372.625    193368.93 0.0021924698 -0.0048793942 -0.0035068502 
  418000    2.6774751  0.024025541    28372.625    193812.03 0.0055138113 -0.0043254298 -0.0047774498 
  419000    2.6860648  0.023475479    28372.625     194361.6 0.0043872703 -0.005720073 -0.0030785619 
  420000    2.6856884  0.023849705    28372.625    194928.79 0.0054162895 -0.0023915263 -0.0032846223 
  421000    2.6842632  0.023883503    28372.625    195580.26 0.0055061066 0.00042184043 -0.0018788217 
  422000    2.6778764    0.0234452    28372.625    196268.15 0.0075369628 -0.0018175409 -0.0035914061 
  423000    2.6739986    0.0234288    28372.625    196876.86 0.0062079367 -0.00044514038 -0.0051322498 
  424000    2.6853385  0.023463692    28372.625    197560.37 0.0080015515 -0.0012278982 -0.0043514529 
  425000    2.6687803  0.024599091    28372.625    198259.58  0.010553586 -0.00083783266 -0.0022985207 
  426000    2.6691479  0.024084584    28372.625    198948.44   0.01140097 -0.00028785258 -0.0041864319 
  427000     2.663119  0.024296255    28372.625    199588.59 0.0097493991 -0.00055898086 -0.0038187595 
  428000    2.6826853  0.023326236    28372.625    200241.42 0.0080926746 0.00089304376 -0.0040418446 
  429000    2.6902335  0.023695432    28372.625    201015.93 0.0080553095 0.0005697147 -0.0014091109 
  430000    2.6767204  0.024370242    28372.625    201668.99  0.009115898 -0.00040614158 -0.0020423067 
  431000    2.6777529  0.023539328    28372.625    202277.75  0.006151389 -0.00093119554 -0.0014242525 
  432000    2.6686126  0.024810913    28372.625    202941.57 0.0054802008 -0.0011195794 0.0020572739 
  433000    2.6775598   0.02360826    28372.625    203488.24 0.0075747882 0.00071418207 0.0019995797 
  434000    2.6694673  0.024205018    28372.625     204061.1 0.0059443976 -0.0033677822 0.0007409407 
  435000    2.6815069  0.023696951    28372.625    204583.41 0.0047413742 0.0011365415 0.0032976253 
  436000    2.6943589   0.02406628    28372.625    205079.42  0.002067668 0.0028955993 0.0035028954 
  437000    2.6847447  0.023893466    28372.625    205548.51 0.00047214929 0.0034857497 0.0039494647 
  438000    2.6853426  0.023901827    28372.625    206091.33 0.0057784781 0.0015010096  0.003597043 
  439000    2.6561344  0.025820297    28372.625    206597.66 0.0026087036   0.00123191 0.0064723949 
  440000    2.6728942  0.024148995    28372.625    207005.91 0.00066463443 0.0023119573 0.00051952771 
  441000    2.6709371   0.02362102    28372.625    207384.17 0.0017980362 0.0025644664 0.00064048828 
  442000    2.6896037  0.023867043    28372.625    207703.67 0.0024160293 0.0027174849 0.0030910463 
  443000    2.6726976  0.024547404    28372.625     208010.4 0.0037540009 0.0054725239 -0.0016942558 
  444000    2.6658448  0.024482876    28372.625    208296.27  0.007764269 0.0050040435 0.00048022122 
  445000    2.6744032  0.023653436    28372.625    208459.07 0.0027980884 0.0049340332 -0.0011579574 
  446000    2.6791432  0.024043592    28372.625    208595.41 0.00063143006 0.0027032406 -0.00031637454 
  447000     2.654315   0.02467549    28372.625    208803.01 0.00085204447 0.0048099031 -0.0024200225 
  448000     2.660092   0.02466941    28372.625    209055.56 0.0016955262 0.00091051908 -0.001104581 
  449000       2.6764   0.02349487    28372.625    209414.87 0.0021849883 0.00057016407 0.00069196373 
  450000    2.6766189  0.024050084    28372.625    209872.99 0.0022335556 0.00089970388 0.0010314697 
  451000    2.6737073  0.024759064    28372.625    210426.56 -0.0022500835 0.0015492257 -0.0021132127 
  452000    2.6731803  0.023568286    28372.625    210975.15 -0.0027106255 -0.0003250392 0.0014013311 
  453000    2.6676794  0.023835275    28372.625    211477.54 0.00062981462 -0.00092663447 0.0020518693 
  454000    2.6817734  0.023872015    28372.625    211848.75 0.0010467107 0.00057190152 0.0026186781 
  455000    2.6811799  0.024104103    28372.625    212150.24 0.0032566324 -0.0039299712 0.0012567915 
  456000    2.6758773  0.024067911    28372.625    212481.58 0.0027398685 -0.0011229159 0.0032187222 
  457000    2.6873586  0.023878444    28372.625     212942.1  0.001861926 -0.0050669377 0.0029521738 
  458000    2.6821916  0.023536276    28372.625    213423.83 0.00071536012 -0.0013543539 0.0032411733 
  459000    2.6773373  0.023424044    28372.625    213971.88 -0.00099865843 -0.0019675723 0.0038541309 
  460000    2.6824581  0.023867101    28372.625    214489.36 0.00043572873 -0.0027963015 0.0046075282 
  461000    2.6791591  0.023608786    28372.625    215002.47 -0.0016114405 -0.0041919862 0.0019341491 
  462000    2.6622461  0.025273755    28372.625    215488.07 -0.0022594815 -0.0022477316 0.0025030351 
  463000    2.6752526  0.023709838    28372.625    215783.16 -0.0035795179 -0.00092510375 -0.00026791301 
  464000    2.6923725  0.023435053    28372.625    216066.27 -0.0022211518 -0.0026883652 -0.0043137867 
  465000    2.6860505  0.023798264    28372.625    216391.05 -0.0029259832 -0.0049650252 -0.0051773026 
  466000    2.6789934  0.024617776    28372.625    216771.18 -0.0025982112 -0.0009048896 -0.0056157061 
  467000    2.6770684   0.02355896    28372.625    217153.58 -0.0018916055 -0.001800827 -0.0087610652 
  468000    2.6722247  0.024850034    28372.625    217618.55 0.0017769489 -0.0078841972 -0.003788945 
  469000    2.6729861  0.023543424    28372.625    218231.34 -0.00095482636 -0.004795954 -0.0057577572 
  470000    2.6839732   0.02345376    28372.625    218818.41 -4.4451333e-05 -0.0044441686 -0.0078588698 
  471000    2.6787268  0.023582437    28372.625    219358.27 0.00015101691 -0.0035744247 -0.0074824123 
  472000      2.67512  0.023856904    28372.625    219867.52 -0.00020837821 -0.0037056549 -0.0071756692 
  473000    2.6800739  0.024007218    28372.625    220285.28 0.0039953156 -0.0043037804 -0.0019046541 
  474000    2.6799231  0.023674045    28372.625    220765.96 0.0017092001 -0.0017347338 -0.0037310875 
  475000    2.6778598  0.023716495    28372.625    221358.43 0.0025180133 0.0014873094 -0.004310174 
  476000    2.6768653  0.024083052    28372.625    221890.15 0.0013953375 0.0023939704 -0.0025718448 
  477000    2.6689339  0.024392587    28372.625    222327.84 0.0015285644 0.00050436593 -0.0042504832 
  478000    2.6625793  0.024879271    28372.625    222786.63 0.0040095232 0.0086364608 -0.0051584575 
  479000    2.6752201  0.023660985    28372.625    223157.69 -0.0087932189 0.0058188526 -0.0042439911 
  480000    2.6676107  0.024121892    28372.625    223638.63 -0.0074082921 0.0058938738 0.00047464673 
  481000    2.6776537  0.023942203    28372.625    224028.83 -0.0074023306 0.0083920649 0.00038306772 
  482000    2.6805379  0.024123464    28372.625    224281.97 -0.0086985115 0.0060730981 0.0013301622 
  483000    2.6695206  0.023894744    28372.625    224565.14 -0.0062218854 0.0039817563 -0.0010294997 
  484000    2.6923071  0.024589771    28372.625    224924.99 -0.0065183117  0.004166095 -0.003668334 
  485000    2.6876332  0.023842939    28372.625    225297.48 -0.0041307742 0.0019825399 -0.0013370797 
  486000    2.6811999  0.024200778    28372.625    225651.64 -0.0061555233 0.00096628905 -0.00094841572 
  487000     2.686669  0.023428961    28372.625    225962.93 -0.0045508208 0.0027080629 0.0014579521 
  488000    2.6790645  0.024243909    28372.625    226275.74 -0.0042631677 0.0044214492 0.0032518937 
  489000    2.6872217  0.023609526    28372.625    226614.74 -0.0051127329 0.0021315878 0.0034791497 
  490000    2.6838777   0.02392011    28372.625    226909.33 -0.0048307291 0.0042655623 0.00074360389 
  491000    2.6890466  0.023343219    28372.625    227356.58 -0.0049362042 0.0014128003 0.00079427649 
  492000    2.6855123  0.023684112    28372.625    227745.64 -0.0053963555 0.0014104217 -1.2577369e-05 
  493000    2.6881999   0.02351949    28372.625    228126.47 -0.0030659711 0.0043625376 -0.0019093051 
  494000    2.6651998  0.023493547    28372.625    228490.36 -0.00027512035 0.0014586223 0.00046053757 
  495000    2.6660597  0.024483439    28372.625    228745.99 0.0074031842 -0.0018915043 -0.0016774843 
  496000    2.6728989  0.024558357    28372.625    228949.56 0.0046984324 0.0006920983 -0.0017118165 
  497000    2.6695282  0.024024672    28372.625    229066.58 0.0036287811 -0.0020232474 -0.0024160585 
  498000    2.6691575  0.024484978    28372.625    229193.43  0.004333812 -0.0023197583 0.0017650055 
  499000    2.6693464  0.024013697    28372.625     229285.9 0.0028810014 -0.0049374023 0.0035275388 
  500000    2.6811306  0.023842487    28372.625    229443.96 0.0007054818 -0.0017710091 0.00097022794 
  501000    2.6721785   0.02382382    28372.625    229643.54 0.00070764969 -0.0041661777 0.00075380516 
  502000    2.6762352  0.024533313    28372.625    229933.43 0.0026377467 -0.0037877927 0.0020451563 
  503000    2.6736376  0.023407795    28372.625    230113.65 -0.0010478056 0.00098150516  0.002263353 
  504000    2.6795858  0.024035405    28372.625     230255.5 -0.00074490928 0.00051308502 0.0020645222 
  505000    2.6847029  0.024083579    28372.625    230480.46 0.0019763402 0.0027043092 0.0015277704 
  506000    2.6824002  0.023625208    28372.625    230635.71 0.0045918996 0.0035352072 0.00086587635 
  507000    2.6876538  0.023475942    28372.625    230910.05 0.0061847292 0.0034142517 -0.0018734809 
  508000    2.6764454  0.023635223    28372.625    231293.47 0.0039441248 0.0047855303 -0.0064390119 
  509000    2.6800909  0.023826194    28372.625     231772.9 0.0046028227 0.0054235714 -0.0063463503 
  510000    2.6790407  0.024159105    28372.625    232312.46 0.0037687903 0.0027641852 -0.0041964262 
  511000    2.6803072  0.024462673    28372.625    232809.73 0.0073327945 0.0042751803 -0.0030981786 
  512000    2.6872596  0.023629505    28372.625    233196.41 0.0082654841 0.0050836459 -0.0045627244 
  513000    2.6786334   0.02373579    28372.625    233580.69  0.005438081 0.0067602745 -0.0026991339 
  514000     2.669159   0.02452489    28372.625    233968.23 0.0055911502 0.0056920762 -0.0041861665 
  515000    2.6712624  0.023806866    28372.625    234416.46 0.0062152005 0.0072720585 -0.0053778771 
  516000    2.6764138   0.02473619    28372.625    234917.16 0.0073992317 0.0086698884 -0.0050213381 
  517000    2.6826538  0.023770626    28372.625    235483.64 0.0073533525 0.0066312231 -0.003191866 
  518000    2.6692937  0.023565722    28372.625    236057.63 0.0052805021 0.0088422619 -0.001172378 
  519000    2.6817562   0.02378622    28372.625    236588.46 0.0079648853 0.0096668232 -0.0020890582 
  520000    2.6968684   0.02472456    28372.625     237060.1 0.0082640975 0.0099290023 -0.0041252272 
  521000    2.6750976  0.023537167    28372.625    237341.48 0.0042522636 0.0077556952 -0.0044214123 
  522000    2.6792314  0.024010744    28372.625    237604.85 0.0039422436 0.0086030912 -0.004646627 
  523000    2.6754899  0.023735224    28372.625     237810.1 0.0046196114 0.0055112102 -0.0084839724 
  524000    2.6886536  0.023544452    28372.625    237899.42 0.0010554571  0.003561068 -0.0061239427 
  525000    2.6819445  0.023430684    28372.625    237975.93 -0.00022599704 0.0068352044 -0.0045725429 
  526000    2.6855577  0.024403382    28372.625    238076.67 -0.00092205561  0.005166816 -0.0021556441 
  527000    2.6788037  0.023450994    28372.625    238090.26 0.0011071168 0.0049929796 -0.0025911071 
  528000    2.6655885  0.024255475    28372.625     238183.4 -0.00012528036 0.0031614356 -0.0041271956 
  529000    2.6797171  0.024977396    28372.625    238348.32 -0.0014114213 0.0044976694 -0.0005879239 
  530000    2.6874069  0.023993755    28372.625    238578.66 0.00071406901 -0.00065185889 -0.0042626177 
  531000    2.6924321  0.023858667    28372.625    238894.28 -0.0020753356  0.002727074 -0.0068518554 
  532000    2.6924457  0.023969189    28372.625    239170.36 -0.0054619936 0.0047970898 -0.0061829177 
  533000    2.6861134  0.023676416    28372.625    239486.97 -0.0027565016 0.0042709326 -0.005636291 
  534000    2.6734318  0.025063854    28372.625    239830.06 -0.0065915098 0.00063055796 -0.008450883 
  535000    2.6706824  0.023436309    28372.625     240206.6 -0.0052257901 0.00044670027 -0.0085166278 
  536000    2.6883391  0.024941916    28372.625    240637.79 -0.0072908211 0.0026814223 -0.0085722618 
  537000    2.6653426  0.023719954    28372.625     241032.2 -0.005357463 -0.0025040855 -0.0038105927 
  538000     2.649956   0.02621084    28372.625    241469.67 -0.0067197547 -0.013947311 0.00032741522 
  539000    2.6421879  0.025964668    28372.625    242001.73 -0.0070690698 -0.0073147361 -0.0089788878 
  540000    2.6795675  0.024588146    28372.625    242680.73 -0.0062481062 -0.0029047711 -0.0031004183 
  541000    2.6743967  0.024045473    28372.625    243380.45 -0.0056706005 -0.0048736729 -0.0029085161 
  542000    2.6759013  0.023406556    28372.625    244138.43 -0.004819193 -0.0045244888 -0.0034745795 
  543000    2.6753497  0.024293244    28372.625    244837.02 -0.0070751009 -0.0010767484 -0.0018916335 
  544000    2.6667085   0.02471598    28372.625    245578.86 -0.011775131 0.0012054585 -0.0020343313 
  545000     2.685844  0.023351906    28372.625    246275.29 -0.0078928497 0.0010571908 -0.00091073831 
  546000    2.6960831  0.023607534    28372.625    247055.27 -0.0056876898 0.0024377342 -0.0010863676 
  547000    2.6852257  0.023889089    28372.625    247814.88 -0.0079669801 0.0044173878 0.0017115538 
  548000    2.6819586  0.023804583    28372.625    248344.92 -0.0067336373 0.0028648268 0.0020391191 
  549000    2.7023146   0.02379916    28372.625    248752.52 -0.0020492497 0.0050491342 0.0034973638 
  550000    2.6484775  0.026617982    28372.625    248958.97  -0.00396331  0.003676593 0.0035113551 
  551000    2.6811303  0.023990499    28372.625    249240.55 -0.00032749541 0.0032541351 -0.0017907381 
  552000    2.6728613  0.024314763    28372.625    249664.93 -0.002446666 0.0053341173 -0.00042138591 
  553000     2.681721  0.024478991    28372.625    250095.86 -0.0015517016 0.0028016477 0.0010362684 
  554000    2.6753443  0.024150178    28372.625    250612.54 -0.0044585582 0.00053242026 -0.0028121884 
  555000    2.6921632   0.02350374    28372.625    251012.24 -0.0017610741 0.0036891422 -3.9573617e-05 
  556000    2.6641313  0.023573241    28372.625    251427.19 -0.0022176274 0.0033727286 0.0018651401 
  557000    2.6759578  0.023507357    28372.625    251900.81 -0.0021000554   0.00314121 0.0028902918 
  558000    2.6683246  0.024202335    28372.625    252409.19 0.00066540192 0.0043815767 0.0020905153 
  559000     2.674904   0.02367359    28372.625    252919.61 -0.0022073185 0.0048427191 -0.00044956375 
  560000    2.6771601    0.0235565    28372.625    253616.11 -0.0051592392 0.0049320832 0.00070495545 
  561000    2.6709564   0.02358529    28372.625    254352.82 -0.0046487552 0.0036074106 0.0010482974 
  562000    2.6876386  0.023703134    28372.625    255049.72 -0.0048250809 0.0032867377 0.0030430491 
  563000    2.6958512  0.023651345    28372.625     255758.3 -0.0035514209 0.0035876227 0.0021171048 
  564000    2.6739471   0.02430755    28372.625    256351.99 -0.004734227 0.0045507349 0.0060865617 
  565000    2.6839569  0.023822806    28372.625    256910.52 -0.0045263195 0.0017326614 0.0061969159 
  566000     2.675577  0.023612919    28372.625    257366.69 -0.0049607429 0.0012180466 0.0037498154 
  567000    2.6757548  0.023867158    28372.625    257895.13 -0.0044839048 -0.0012980953 0.0020735008 
  568000    2.6641325  0.023931617    28372.625    258441.85 -0.0025477228 0.00047566304 0.0013712528 
  569000    2.6767198   0.02376112    28372.625    259035.05 -0.0048086126 0.0014698372 0.0016776601 
  570000      2.66465  0.024295907    28372.625     259650.4 -0.0044818392 -0.00053454513  0.002527645 
  571000    2.6820194  0.024823972    28372.625    260132.06 -0.0068971661 0.0007261171 0.0041772402 
  572000    2.6825191  0.023734901    28372.625    260399.91 -0.004169773 -0.002231834 0.0039248755 
  573000     2.681459  0.023800675    28372.625    260731.95 -0.0085388154 -0.0072366485 0.0043950713 
  574000    2.6921849  0.024211111    28372.625    261143.26 -0.006499628 -0.0055954832 0.0039483135 
  575000    2.6609254  0.025858608    28372.625    261652.33 -0.0092132182 -0.005323378 -0.00047061562 
  576000    2.6661195  0.024072367    28372.625     262316.5 -0.0092540718 -0.0051809207 -0.0015583477 
  577000    2.6740821  0.024056534    28372.625    262933.28 -0.0085482482 -0.0063348222 -0.0020379622 
  578000    2.6796722  0.023698187    28372.625    263557.17 -0.0070827835 -0.0036257012 -0.0008435039 
  579000    2.6605682  0.025484233    28372.625    264224.81 -0.006485077 -0.0052407063 -0.0049532556 
  580000    2.6753442   0.02460955    28372.625    264851.58 -0.0073754409 -0.007714472  0.001187757 
  581000    2.6790267   0.02434931    28372.625    265366.72 -0.0066791119 -0.0053363144 0.0034157416 
  582000    2.6768275  0.024095592    28372.625    265873.63 -0.0051143926 -0.0054206031  0.003393561 
  583000    2.6836215  0.024138979    28372.625    266349.25 -0.0047620876 -0.0042107186 0.0036651547 
  584000    2.6778441   0.02384784    28372.625    266869.47 -0.0044136297 -0.0062918595 0.0015447985 
  585000     2.677572  0.024657508    28372.625    267324.34 -0.0041523234 -0.0091625916 0.0011492989 
  586000    2.6710851   0.02453289    28372.625    267711.01 -0.0063569315 -0.0080610806 0.00060316575 
  587000    2.6860238  0.023569523    28372.625    268257.05 -0.0055561139 -0.0079122248 -9.8133696e-05 
  588000    2.6706728  0.023620258    28372.625    268958.97 -0.0068094253 -0.010161139 -0.0028259492 
  589000    2.6737104  0.023718985    28372.625    269596.68 -0.0071807332 -0.0098872666 -0.005674659 
  590000    2.6897964  0.023699028    28372.625    270148.02 -0.0065639852 -0.0079916136 -0.0045012665 
  591000    2.6836416   0.02366516    28372.625     270680.6 -0.006067297 -0.0081506207 -0.0024981314 
  592000    2.6604829  0.025157315    28372.625    271126.01 -0.0016005683 -0.0092317759 0.00037114849 
  593000    2.6830494  0.023397196    28372.625    271599.18 -0.0011845488 -0.0079281155 0.0016298242 
  594000    2.6742914  0.023657382    28372.625    272077.96 0.0011995584 -0.0073807309 0.0006263247 
  595000    2.6829966  0.023982297    28372.625    272627.22 0.0019530967 -0.0063608938 0.0011705818 
  596000    2.6712741  0.024131303    28372.625    273083.59 -0.0076245818 -0.00091190695 -0.0049097441 
  597000     2.680228  0.024226163    28372.625    273425.54 -0.00093292935 -0.0035787282 -0.0032357559 
  598000    2.6812005  0.025014804    28372.625    273686.26 -0.0065677595 -0.0014359461 -0.0014943196 
  599000    2.6883482  0.023715103    28372.625    273985.89 -0.0063254409 0.00071528352 -0.0014922589 
  600000    2.6676036  0.024007846    28372.625    274263.86 -0.0080745709 -0.0010806011 -0.0012826906 
  601000    2.6764376  0.023478303    28372.625     274583.4 -0.0052699551 -0.0030545363 -0.0012559145 
  602000    2.6759887  0.024267548    28372.625    274954.36 -0.0079696646 -0.0036354508 -0.0049174149 
  603000    2.6699543  0.024158406    28372.625    275479.38 -0.003424142 -0.0045785194 -0.0009063233 
  604000    2.6704352  0.024325003    28372.625    275845.75 -0.0043515876 -0.0017499613 -0.0010494276 
  605000    2.6600151  0.026009589    28372.625    276198.26 -0.0023048019 -0.0037059741 0.0092413539 
  606000    2.6736614  0.023649437    28372.625    276675.94 -0.0051575727 -0.00092421333 0.0026044119 
  607000     2.668053  0.024824216    28372.625    277223.84 -0.0040303562 -0.0021279676 -0.0014192494 
  608000    2.6753264  0.023573155    28372.625    277783.67 -0.0023752542  0.001084452 0.0021043688 
  609000    2.6738249  0.025042833    28372.625     278465.6 -0.0043290576 0.0018394854 0.0042323193 
  610000    2.6811705  0.023910799    28372.625    279098.67 -0.0051487332 -0.00019225628 0.0037777979 
  611000    2.6734693  0.023552048    28372.625    279684.55 -0.0047273924 0.0023544886 0.0018038831 
  612000    2.6785986  0.023693836    28372.625    280258.09 -0.0012855984  0.001540289 0.0028606663 
  613000     2.670221  0.023486225    28372.625    280661.16 -0.001029729 0.00092376953 0.0020282956 
  614000     2.680838  0.024411805    28372.625    281181.36 0.0019896019  0.003434726 9.6894187e-05 
  615000     2.680994  0.023686656    28372.625     281703.2 0.0023627781 0.0062514758 0.0013832305 
  616000    2.6825858  0.023593969    28372.625    282259.37 0.0025745032 0.0047202108 -0.0013200972 
  617000    2.6691192  0.024286714    28372.625    282913.81 0.0047667432 0.0033633168 -0.00085161439 
  618000    2.6795966  0.023785126    28372.625    283697.92 0.0039939255 0.0018809052 0.00059648713 
  619000    2.6736589  0.023897216    28372.625    284535.33 0.0037850381 0.0017070638 0.0019006647 
  620000    2.6766978  0.023670391    28372.625    285371.26 0.0029186729 0.0021648608 -0.00045266071 
  621000    2.6748181  0.023361672    28372.625    286196.88 0.00033512737 0.00082505136  0.000455326 
  622000    2.6697833  0.023804078    28372.625    286947.44 -0.0028016098 0.0006024906 6.2294297e-05 
  623000    2.6771699  0.023877849    28372.625    287609.72 -0.0026297613 0.0008316652 0.0011810099 
  624000     2.670744  0.023513186    28372.625    288083.94 -0.00077165918 -0.00066924562 0.00034805899 
  625000    2.6864341  0.023719818    28372.625    288610.54 -0.0017938957 -0.0023437958 -0.0010648261 
  626000    2.6698014  0.024381224    28372.625    289261.95 -0.00067240991 -0.00036472302 0.0026816436 
  627000    2.6868352  0.024059616    28372.625    289794.47 0.00018887746 -0.0041090891 0.0017763095 
  628000    2.6691038  0.023775376    28372.625    290149.76 0.0012472454 -0.0030890227 0.0038772615 
  629000    2.6846848   0.02346715    28372.625    290450.49 0.00092928327 -0.0016348075 0.0047382217 
  630000    2.6614029  0.025008543    28372.625    290812.03 -0.00085637939 0.0025812341 0.0059543352 
  631000    2.6801411  0.023813736    28372.625    291202.54 -0.0041084509 -0.001178265 0.0086793136 
  632000     2.668194  0.024104886    28372.625    291609.89 -0.0019256457 0.00036055744 0.0090302216 
  633000    2.6599208  0.025670256    28372.625       291935 -0.00068957896 -0.0019831724  0.010149805 
  634000    2.6726055  0.023794759    28372.625    292272.97 -0.0038220393 0.0015668669  0.003810708 
  635000      2.68551  0.023246561    28372.625    292652.09 -0.0026022865 0.0013557302 0.0033164337 
  636000    2.6808168  0.023405512    28372.625    293021.15 -0.0016356875 0.0010659671 -0.00062465714 
  637000     2.669367  0.023952897    28372.625    293446.71 -0.0019134996 -0.00057397984 0.0028903568 
  638000    2.6692942  0.025104223    28372.625    293919.55 -0.0040203588 0.0047782624 0.0087584871 
  639000    2.6708128  0.023511494    28372.625    294485.91 -0.0011664953 0.0030110335 0.0059911876 
  640000    2.6757809  0.024087377    28372.625     295030.8 -0.00053485865 0.0037527558 0.0033217238 
  641000     2.670635  0.023805535    28372.625    295657.23 0.00054547053 0.0012323268 -0.00040534656 
  642000    2.6833222  0.024310755    28372.625    296486.83 2.9382706e-07 0.0048696546 0.0015928363 
  643000    2.6717164  0.023477901    28372.625    297330.54 0.0011934082 0.0065707201 -0.0016198204 
  644000    2.6881186  0.023851269    28372.625    298217.08 -0.0011248374 0.0050242254 -0.0033271694 
  645000    2.7110123  0.024002184    28372.625    299126.65 0.0016011708 0.0061814556 -0.0029518334 
  646000    2.6815292  0.024309719    28372.625    299811.81 0.0027885271 0.0058971949  -0.00548862 
  647000    2.6810875  0.023664101    28372.625    300381.05 0.0050644964 0.0013946419 -0.0056715013 
  648000       2.6721  0.024343903    28372.625    300835.92 0.0075406432 0.0024858337 -0.00046582447 
  649000    2.6799405  0.023289609    28372.625    301383.32  0.007120881 0.0031054466 0.0034541856 
  650000    2.6730623  0.024719409    28372.625       301922 0.0031475821 0.0025595824 0.0026892283 
  651000    2.6738837   0.02404054    28372.625    302398.89 0.00056612112 0.0042383793 -0.00024678989 
  652000    2.6713224  0.024717974    28372.625    302737.23 0.0014225928 0.0030561193 -0.0015299074 
  653000    2.6757131  0.025102625    28372.625    303154.67 -0.0022708262 0.0048395771 0.00031010209 
  654000    2.6829313  0.023889141    28372.625    303668.64 -0.0049823891 0.0010691645 0.0027617878 
  655000    2.6844561  0.023865663    28372.625    304227.92 -0.0059022867  0.004230143 0.0027244171 
  656000    2.6846377  0.023655687    28372.625    304829.35 -0.0035060951 0.0027566584 -0.00017754892 
  657000    2.6860979  0.023501784    28372.625    305565.69 -0.010008804 -0.0028702249 -0.00049152764 
  658000    2.6665924  0.024044394    28372.625    306352.16 -0.0075431715 -0.0018738453 0.00040662105 
  659000    2.6720227  0.023445051    28372.625    307018.54 -0.0078345538 -0.00053772625 0.00083675594 
  660000    2.6804237  0.024089676    28372.625    307768.53 -0.0059670721 0.0022743695 0.00068452383 
  661000    2.6821498  0.024443285    28372.625    308505.14 -0.0066036869 -0.0015843822 -0.0010730571 
  662000    2.6697734  0.024796371    28372.625    309193.38 -0.0045956304 0.0012488643 -0.0050293814 
  663000    2.6705536  0.024318002    28372.625    309993.14 -0.0063394718 0.0041429127 0.0031162439 
  664000    2.6785825    0.0246266    28372.625    310720.21 -0.006333909 0.0054215952 0.0039998285 
  665000    2.6769626   0.02397718    28372.625     311389.1 -0.0033618584 0.0040938714 0.0061726135 
  666000    2.6690415  0.024334117    28372.625     311904.2 -0.0022780305 0.0014134585 0.0045308131 
  667000    2.6791611   0.02383004    28372.625    312346.79 -0.0030221217 0.0036533584 0.0027792587 
  668000    2.6855247  0.023613588    28372.625     312886.5 -0.0025283243 0.00081764061 0.00010385011 
  669000    2.6805253  0.024361665    28372.625     313570.6 -0.0021756457 -0.00049838044 0.00030528634 
  670000    2.6808941  0.024000032    28372.625    314076.48 -0.00083718982 -0.00050313626 0.0015205526 
  671000    2.6759534  0.023597069    28372.625    314534.67 0.0011719879 -0.0035534439 0.00044414546 
  672000     2.670822  0.024244055    28372.625    315001.64 7.7840214e-06 -0.0017431271 -0.0010645669 
  673000    2.6888382  0.023857483    28372.625    315468.35 -0.0037528342 -0.0029913663 -0.0038013322 
  674000     2.676663  0.023898717    28372.625    315980.69 -0.0032502084 -0.0018205243 -0.0034146776 
  675000    2.6897482  0.023365576    28372.625    316345.46 0.0028793542 5.9555145e-05 -0.0034341359 
  676000    2.6735259  0.024174322    28372.625     316610.6 0.0028631313 0.00026371477 -0.0064849435 
  677000    2.6797683  0.025271757    28372.625    316898.88 0.0021475197 0.0021881309 -0.0046704603 
  678000    2.6758278  0.025127076    28372.625    317161.29 0.0051187133 0.0036527975 -0.0048797841 
  679000    2.6795342  0.023513368    28372.625    317465.66 0.0038250447  0.004585858 -0.0032456296 
  680000    2.6831617  0.024244965    28372.625    317846.74 0.00037214519 0.0068739919 -0.0018025476 
  681000     2.679744  0.023769064    28372.625    318325.46 -0.00013940152 0.0017995795 0.00016523116 
  682000    2.6839202  0.023488039    28372.625    318846.61 -0.00045890826 -0.00031459134 0.0011132244 
  683000    2.6769815   0.02379686    28372.625    319157.09 -0.0016758247 -0.00060928308 -0.00085191103 
  684000    2.6929383  0.023618639    28372.625    319512.73 -0.0010688813 -0.00080762786 -0.00052786738 
  685000    2.6765569  0.024218353    28372.625    319884.98 -0.0010247425 -0.0022118734 9.0037478e-05 
  686000    2.6798627  0.023825839    28372.625     320140.7 0.00054005669 -0.0033676251 0.00031800069 
  687000    2.6750686  0.023673236    28372.625    320326.15 0.0014298804 -0.0031280668 3.0211148e-05 
  688000    2.6806046  0.023444475    28372.625    320553.31 0.0027687949 -0.0010024871 -0.002096166 
  689000    2.6739909  0.024573171    28372.625    320882.23 0.00053520373 -2.1039441e-05 0.0012159593 
  690000      2.68479  0.023534974    28372.625    321237.48 -3.739465e-05 0.00045453175 -0.00032397971 
  691000    2.6698664  0.023990073    28372.625     321353.3 -0.00090402801 -0.0027031102 -0.0051217777 
  692000    2.6774669  0.023702128    28372.625    321448.34 -0.0026267405 -0.0023500265 -0.001978457 
  693000    2.6745861   0.02452217    28372.625    321575.21 -0.0072350062 0.0029868464 -0.0016822611 
  694000    2.6796182  0.023893051    28372.625    321784.61 -0.002941176 0.00061496167 -0.002325432 
  695000    2.6722451    0.0242159    28372.625    322108.67 -0.0024077094  0.001318561 -0.0019870934 
  696000    2.6772521  0.023803589    28372.625    322462.59 -0.0036048395 0.00026388482 -0.0019712013 
  697000    2.6732745  0.023385178    28372.625    322973.01 -0.0015525113 -0.0015491405 -0.0037945156 
  698000    2.6827988  0.023559217    28372.625    323614.73 -0.0006652537 -0.0015492206 -0.0043829188 
  699000    2.6873457  0.023823746    28372.625     324152.6 -0.0046651661 0.00073427405 0.0005322511 
  700000    2.6799033  0.023705162    28372.625    324564.07 -0.0042370079 0.00043178068 -0.0020935399 
  701000    2.6778826  0.024347362    28372.625    325005.19 -0.00030145757 0.0024958641 -0.0060522605 
  702000    2.6672305   0.02509623    28372.625    325549.86 -0.00047659175 0.0057545219 -0.0014639971 
  703000    2.6758408  0.024114228    28372.625    326160.33 -0.0020388383 0.0072347584 -0.0043613332 
  704000    2.6860026  0.024433392    28372.625    326775.19 -0.0042684111 0.0072394765 -0.0012276694 
  705000    2.6697735  0.024270988    28372.625    327436.35 -0.0081358258   0.00606619  0.002324097 
  706000    2.6890959  0.023468802    28372.625    328088.28 -0.0088968273 0.0026867033 -0.0019851822 
  707000    2.6849472   0.02408988    28372.625    328776.71 -0.0097142799 -0.00037693572 -9.8064952e-05 
  708000    2.6669814  0.024148957    28372.625     329332.8 -0.0079289578 0.00063564499 -0.0015130032 
  709000    2.6701183  0.024356568    28372.625    329862.86 -0.0068754793 0.00076497543 -0.00069656271 
  710000    2.6883261   0.02420848    28372.625    330344.15 -0.007736174 0.0015691944 -0.0015230249 
  711000    2.6816183   0.02342093    28372.625    330615.84 -0.007553068 0.0016201257 -0.00064304621 
  712000    2.6851938  0.024609742    28372.625    330899.03 -0.0067776081 -0.0007882546 -0.00035288967 
  713000    2.6790175  0.023569912    28372.625    331097.26 -0.0025381153 -0.0022050763 0.0035007971 
  714000    2.6788326  0.024115417    28372.625    331234.43 -0.00062169957 0.0015095239 0.0052726819 
  715000    2.6755711  0.023591459    28372.625    331390.18 -0.00058826112 0.00043187851 0.0041993626 
  716000    2.6775718  0.023929035    28372.625    331627.25 -0.0014867826 -0.0012002096 0.0065144095 
  717000    2.6709661  0.023462277    28372.625    331845.01 -0.0016337523 -0.0013874913 0.0042590575 
  718000    2.6707327  0.024330468    28372.625    332227.16 -0.0033381152 -0.00070036578 0.0036897897 
  719000    2.6679758  0.023812903    28372.625    332600.28 -0.0050248552 -0.0011843402 0.0028274381 
  720000    2.6764852  0.023570684    28372.625    332768.83 -0.0058845424 -0.0022672641 0.0016120218 
  721000    2.6744708  0.023425647    28372.625    333097.77 -0.0054431611 0.00044995444 0.0043580506 
  722000    2.6785737  0.023770444    28372.625    333466.25 -0.0032183929 0.0016809737 0.0039197972 
  723000    2.6728098  0.023511474    28372.625     333893.3 -0.0027515573 0.0022221246 0.0037571335 
  724000    2.6724847  0.024018309    28372.625    334340.85 -0.0014829823 0.0048442872 0.0025456812 
  725000    2.6732165  0.023625929    28372.625    334782.52 -0.00074086953 0.0052030603 0.0017168999 
  726000    2.6689556  0.024166497    28372.625    335260.06 -0.0024282241 0.0023749058 0.0011526539 
  727000    2.6669935  0.024590576    28372.625    335725.38 -0.0004028757 0.0047660601 0.00089098747 
  728000    2.6911596  0.023916952    28372.625    336256.13 -0.0028125707 0.0029823904 0.0033902537 
  729000    2.6764713  0.023359932    28372.625    336761.52 -0.003794671 0.0013161315 0.0029805115 
  730000    2.6732477  0.023613188    28372.625    337339.97 -0.0031480171 0.00072175678 0.0042639725 
  731000    2.6757673  0.024270032    28372.625    337915.38 -0.0024365667 -0.0001274889 0.0074313473 
  732000    2.6688652  0.024397609    28372.625    338434.42 0.0016288659 0.0034051241 0.0058370114 
  733000    2.6775647  0.023321232    28372.625     338921.6 0.0013396577 0.0063361456 0.0047518669 
  734000    2.6781059  0.024340714    28372.625    339323.75 0.0016613583 0.0060758964 0.0048856722 
  735000    2.6554526  0.025351509    28372.625    339776.63 0.00045118077 0.0098327132 0.0067988174 
  736000    2.6742759  0.024738697    28372.625    340217.25 -0.002488189 0.0052494695 0.0030001757 
  737000    2.6715176  0.023543384    28372.625    340718.47 -0.0018051247 0.0043003384 0.0021048705 
  738000    2.6887301  0.024146067    28372.625     341090.2 -0.00012890486 0.0040739676 -1.7632349e-05 
  739000    2.6703321  0.023495111    28372.625    341388.59 -0.00095967757 0.0051461957 -0.00011968859 
  740000    2.6912087  0.023479465    28372.625    341570.95 -0.00097859401 0.0041879625 -0.00079335209 
  741000    2.6655344   0.02552399    28372.625    341712.42 0.00011480105 0.0063071323 0.0011259559 
  742000    2.6630523  0.024286011    28372.625    341882.23 -0.0021376084 0.0048280451 0.0010475254 
  743000    2.6876921  0.023849731    28372.625    342013.38 0.00059771612 0.0063706109 0.0040175898 
  744000    2.6901534  0.023748056    28372.625    342182.83 -0.0010839025 0.0051628043 0.0056324082 
  745000    2.6830844  0.023514065    28372.625    342572.42 -0.0032304693 0.00016652768 0.0072644867 
  746000    2.6829452  0.023640546    28372.625    343152.58 -0.0036511829 -0.00033237608 0.0087557894 
  747000    2.6747543  0.023750066    28372.625    343805.61 -0.0033216263 -0.0030579957 0.0085955014 
  748000    2.6601004  0.024557201    28372.625       344348  -0.00687816 -0.00014533839 0.0083659063 
  749000    2.6820869  0.024604646    28372.625    344937.32 -0.0057214411 -0.0022451387 0.0091714873 
  750000    2.6916155  0.023929545    28372.625    345401.78 -0.0072942827 -0.0011332521  0.009719203 
  751000    2.6960888  0.024240951    28372.625     345687.7 -0.006975209 0.00026972654 0.0093232249 
  752000    2.6789628  0.024147439    28372.625    345848.17 -0.0023357483 0.0029742777  0.011122871 
  753000    2.6828329  0.024180707    28372.625    346060.19 -0.002244439 0.0032557768  0.013222034 
  754000    2.6725225  0.023960975    28372.625    346195.32 -0.0038348522  0.005666797 0.0084853409 
  755000    2.6907053  0.023742662    28372.625     346216.7 -0.0037480635 0.0045369145 0.0097973371 
  756000    2.6808685  0.023900138    28372.625     346335.6 -0.00099700169  0.005753625  0.010152271 
  757000    2.6823885  0.024241418    28372.625    346538.22 -0.00014321128 0.0075451417  0.010809811 
  758000    2.6711032  0.024522706    28372.625    346788.67 -0.00021522613 0.0059992738  0.009385676 
  759000    2.6920259  0.024138352    28372.625    347010.92 -0.00061410185 0.0066944605 0.0076160455 
  760000    2.6823482  0.024101519    28372.625     347417.4 0.0021570643 0.0058655844 0.0048226662 
  761000    2.6829056  0.024603762    28372.625    347958.19  0.003305999 0.0060800319  0.004374832 
  762000     2.673621  0.024391199    28372.625    348493.81 0.0023452905   0.00463901 0.0035144271 
  763000    2.6767909  0.023597771    28372.625    349090.63 0.0035327408 0.0027832714 0.0021205034 
[...]
 1844000    2.6835279  0.023586579    28372.625    858219.23 -0.0010665308 0.00032339289 -0.0012993529 
 1845000    2.6877042  0.023699159    28372.625     858696.5 -0.0013210787 -0.00092084385 -0.0021999985 
 1846000    2.6710271  0.023572703    28372.625       859333 -0.0024691852 9.0994578e-05 -0.0011075404 
 1847000    2.6758742  0.023427787    28372.625    860223.11 -0.0017399598 -0.00025598622 -0.0025273241 
 1848000     2.666497   0.02404683    28372.625    861071.21 -0.0019773034 -0.0028056683 -0.0037396454 
 1849000    2.6736826  0.024401136    28372.625    862004.74 -0.0027311807 -0.00044557451 -0.0026297285 
 1850000    2.6864103  0.024181364    28372.625    862778.25 -0.0032993576 -0.0029704575 -0.0036330809 
 1851000    2.6885845  0.023679742    28372.625    863628.72 0.00012250944 -0.00053900181 -0.0020448205 
 1852000    2.6847372  0.023904525    28372.625    864455.33 0.00022767311 -6.2575237e-05 -0.0017644958 
 1853000    2.6703729  0.024352282    28372.625    865421.38 -0.0017108704 0.0056918236 -0.0030448398 
 1854000    2.6745307  0.023730776    28372.625    866104.98 -0.0021097753   0.00181814 -0.0033430985 
 1855000     2.681803  0.024047888    28372.625    866549.01 -0.00063141214 0.0024578373 0.0010685008 
 1856000    2.6775227  0.024328566    28372.625    866989.24 0.0015944966 0.0017949406 0.0021724222 
 1857000    2.6984664  0.024201469    28372.625    867286.44 -0.0015626092 0.0043480917 0.0029537787 
 1858000    2.6919086  0.024169175    28372.625    867620.15 -0.0017434866 0.0044325859 0.0028504175 
 1859000     2.683197  0.023651681    28372.625    867861.84 -0.00061339468 0.0039660934 0.0024375704 
 1860000    2.6773424  0.024083354    28372.625    868294.62 -0.00087371708 -0.0012920341 0.0009618037 
 1861000    2.6620304  0.024931929    28372.625    868774.17 -0.0069711849 -0.00069647197 -0.0010784184 
 1862000    2.6661994   0.02475149    28372.625    869004.97 -0.0045244289 -0.0020681916 0.00047229806 
 1863000     2.687284  0.023445918    28372.625    869254.05 -0.0043336442 -0.0060135187 -0.0009396053 
 1864000    2.6735545  0.023549601    28372.625     869683.7 -0.0062228025 -0.0060681048 -0.00024314866 
 1865000     2.676362  0.024039423    28372.625    870229.69 -0.0075024692 -0.0046702138 0.00028604843 
 1866000    2.6711925  0.025070004    28372.625    870809.66 -0.0019241095 -0.0045963597 -0.0034785768 
 1867000    2.6824975  0.024429469    28372.625     871293.3 -0.0029218184 -0.00048271398 -0.0013920759 
 1868000    2.6764905   0.02401155    28372.625    871598.18 -0.0037691596 -0.0010039745 -0.0028732202 
 1869000    2.6733745  0.024117533    28372.625    871917.13 -0.0032020287 -0.00069603203 -0.0038961429 
 1870000    2.6891988  0.023875777    28372.625    872309.22 -0.00070806244 -0.00091193371 -0.0071576335 
 1871000    2.6838841  0.023513865    28372.625    872992.32 0.0014000393 -0.00073173634 -0.0062324335 
 1872000      2.67194  0.024793615    28372.625    873777.11 0.0010818391 0.0018274814 -0.0053305758 
 1873000    2.6789047  0.024332447    28372.625    874110.25 0.0010794494 -0.0011510645 -0.0036792003 
 1874000    2.6769599  0.024439821    28372.625     873997.6 -0.00039239373 0.0014649976 0.0014025585 
 1875000    2.6796086  0.023470444    28372.625    873841.37 -0.0010180256 0.00052573687 -0.0027750309 
 1876000    2.6890286  0.023919404    28372.625    873617.75 -0.0015857661 -0.0012053939 -0.0046265626 
 1877000    2.6864041  0.023596801    28372.625    873453.07 -0.0018467513 0.0016719325 -0.0038228934 
 1878000    2.6940049  0.023697523    28372.625    873519.67 -0.0051979771 0.0069491359 -0.0025861327 
 1879000    2.6781172  0.024177042    28372.625     873881.4 -0.0068450075 0.0051203589 -0.0022554325 
 1880000    2.6742667   0.02414715    28372.625    874284.28 -0.0043977725 0.0031897586 -0.00041141365 
 1881000    2.6768858  0.024829803    28372.625    874793.96 -0.0054410957 -0.0014889318 0.0020366445 
 1882000    2.6783642  0.023625465    28372.625    875519.06 -0.008584953 -0.00046586233 0.0058766788 
 1883000    2.6870844  0.023445386    28372.625    876158.19 -0.0040596833 0.00082083516 0.0062474165 
 1884000    2.6962425  0.023562718    28372.625    876759.61 -0.0021451033 0.0023616738 0.0073667551 
 1885000    2.6784185  0.023625178    28372.625    877144.18 -0.0040930359 0.0011543532 0.0076796508 
 1886000    2.6798601  0.024523092    28372.625     877357.3 -0.00034503025 0.00061997359 0.0064754905 
 1887000    2.6784803   0.02390742    28372.625    877696.49 -0.0021477375 0.0023137877   0.00593274 
 1888000    2.6846675  0.023401407    28372.625    878155.25 -0.0012307972 0.0023651009 0.0039062036 
 1889000    2.6761647  0.023764037    28372.625    878452.14 -0.0035182478 0.0043363249 0.0043899884 
 1890000    2.6712223  0.023754888    28372.625    878668.65 -0.0010407228 0.0030654251  0.005360001 
 1891000    2.6825514  0.023874535    28372.625    878705.31 0.00081182213 0.0021540556 0.0069517087 
 1892000    2.6630379   0.02455412    28372.625    878607.05 -0.0089068268 -0.0022811659 0.0059144836 
 1893000     2.684725  0.024615395    28372.625    878568.79 -0.0049200375 -0.00096608371 0.0035431179 
 1894000    2.6774999   0.02438929    28372.625    878705.28 -0.0051766219 -0.00046386761   0.00532977 
 1895000    2.6858641  0.023922154    28372.625    879040.22 -0.0051078234 0.00082657413 0.0038152227 
 1896000    2.6739471  0.024407252    28372.625    879492.41 -0.005818803 0.0013916707 0.0035898773 
 1897000    2.6660399  0.025510082    28372.625    879824.87 -0.004606114 0.0055271142 0.0089045839 
 1898000    2.6750102  0.024145099    28372.625    879991.63 -0.0036054815 0.0018778733 0.0033856923 
 1899000    2.6815944  0.023857605    28372.625    880089.51 -0.002710121 0.0034992905 0.0027450626 
 1900000    2.6841164  0.023427587    28372.625    880441.74 -0.003134024 0.0014074512 0.0033772132 
 1901000     2.681282  0.024155985    28372.625    881007.88 -0.0024247329  0.001068463 0.0070893753 
 1902000    2.6688228  0.024098837    28372.625    881604.48 -0.00051824687 0.0025206801 0.0066737591 
 1903000     2.675709  0.023723409    28372.625    882135.07 -0.0036935559 0.0029269782 0.0084799665 
 1904000    2.6864209  0.023476692    28372.625    882593.48 -0.0025461735 0.0044462069  0.010546185 
 1905000    2.6788288  0.023511661    28372.625    883429.84 -0.002277181 0.0046050361 0.0083173836 
 1906000    2.6816683  0.023733402    28372.625    884396.95 -0.0016197185 0.0035883355 0.0075438768 
 1907000    2.6721593  0.023412143    28372.625    884972.46 -0.0025529448 0.0054926437 0.0031867961 
 1908000    2.6765664  0.024709563    28372.625     885262.8 -0.0014960841  0.001128607  0.003682773 
 1909000    2.6926629  0.023692514    28372.625    885693.09 -0.0038854282 -0.00095968645 0.00098509674 
 1910000    2.6769864  0.024501874    28372.625    885740.28 -0.00012015353 0.0032153065 0.0013113492 
 1911000    2.6860792  0.023932331    28372.625    885672.53 0.00064862787  0.003207149 0.0033457037 
 1912000     2.676581   0.02392032    28372.625    885790.38 0.00087412412 0.0046895984 0.0037397599 
 1913000    2.6860023  0.023907722    28372.625    886084.83 0.0013446202 0.0016883393 0.0030977212 
 1914000    2.6800711  0.023616371    28372.625    886084.55 -0.0012498459 -0.0013953161 0.0021310549 
 1915000    2.6655452  0.026084367    28372.625    886133.49 -0.0059438282 0.0027790434 0.0031283993 
 1916000    2.6867063  0.023425244    28372.625    886187.86 0.0035277861 -0.0057018628 0.0032898144 
 1917000    2.6794561  0.023622382    28372.625     886294.1 0.0011314957 -0.0038572261 0.0046862159 
 1918000    2.6681545  0.024410943    28372.625    886555.31 0.0047567244 -0.0027563827 0.0057916624 
 1919000    2.6708672  0.024755858    28372.625    886809.63 0.0016251058 -0.00096195319 0.0042757421 
 1920000    2.6658454  0.024466128    28372.625    886865.01 0.0015296142 -0.0017541186 0.00076159384 
 1921000     2.679493  0.024071669    28372.625    886792.56 0.0030313622 0.00039387358 -0.0010219547 
 1922000    2.6824215  0.024711528    28372.625    886734.83 0.00036317361 0.0028712974 -0.0027308359 
 1923000    2.6835564  0.023850305    28372.625     887038.1 -0.0029837381 0.0054205405 -0.0008418349 
 1924000    2.6733661  0.024990238    28372.625    887401.41 -0.0021876188 0.0045924896 -0.0021560611 
 1925000    2.6800555  0.024787779    28372.625    887674.37 -0.0016107435 0.0052117939 -0.0024434475 
 1926000    2.6851617  0.024219259    28372.625    887917.92 0.0073488844 0.0077338576 -0.0030105713 
 1927000    2.6807835  0.024023544    28372.625    888144.24 0.0026927812 0.0044787889 0.0016209401 
 1928000    2.6879838  0.024261548    28372.625    888347.48  0.001821036  0.003712757 0.0027053838 
 1929000    2.6751633  0.024579024    28372.625    888551.33 0.00057368494 0.0020239043 0.0013326815 
 1930000    2.6761735  0.024770249    28372.625    888698.87 0.0027829493 0.0011424805 0.0058103419 
 1931000    2.6876283  0.024077401    28372.625    888860.22 0.0038066571 -0.00091823372 0.0049669922 
 1932000    2.6862269  0.024085977    28372.625    888930.13 0.0019850491 -0.0029830576 0.0042303858 
 1933000    2.6665269  0.023982469    28372.625       888888 0.00058366509 -0.0013417148 0.0033399308 
 1934000    2.6716676  0.023914982    28372.625    888933.52 0.0029583417 -0.00054985088 0.0013519863 
 1935000    2.6851536  0.023583604    28372.625    889025.44 0.0014546218 0.0014018046 0.00087339271 
 1936000    2.6780545  0.023689749    28372.625    889486.71 0.0026725865 0.00094693682 -0.00096809097 
 1937000    2.6765667  0.023406618    28372.625    889854.76 0.00063242144 0.0025285662 -0.0038209159 
 1938000    2.6737651  0.023765505    28372.625    890177.21 -0.0040516853 0.0011679682 -0.0054019402 
 1939000    2.6725149  0.023606654    28372.625    890760.63 -0.0043447989 0.0030647974 -0.0031185596 
 1940000    2.6952108  0.024143853    28372.625    891457.11 -0.0032388969 0.0037646807 -0.0032128302 
 1941000    2.6738773  0.023670869    28372.625    891875.16 -0.0024783891 0.0046893396 -0.0027382585 
 1942000    2.6686402  0.024431585    28372.625    892337.97 -0.0010652236 0.0025420937 -0.0012094655 
 1943000     2.685286  0.024656071    28372.625    892764.69 -0.0025462813 0.0014803596 -0.0020182694 
 1944000    2.6521687  0.025928921    28372.625    893085.05 -0.0018389692  0.002958217 -0.0050012478 
 1945000    2.6779748  0.024840108    28372.625     893326.2 0.0015031721 0.0035093594 0.00066213156 
 1946000    2.6661823  0.023808507    28372.625    893489.18 0.0043800572 -0.0002155537 -0.0004704256 
 1947000    2.6762672  0.023585836    28372.625    893524.16 0.0050884313 -0.0001729039 -0.0018558871 
 1948000    2.6832577  0.023458757    28372.625    893481.52 0.0061669235 0.0028008223 -0.0025965417 
 1949000    2.6737966  0.023898702    28372.625    893381.94 0.0024510858 0.0020670751 -0.0084129291 
 1950000    2.6734654  0.023876085    28372.625     893454.5 0.0018329862 -0.00063910696 -0.0059827347 
 1951000    2.6710431  0.024709642    28372.625    893907.59 0.00032774197 -0.0039795887 -0.0062655802 
 1952000    2.6847805  0.023878462    28372.625    894426.54 0.0025437955 -0.0034422357 -0.0061786969 
 1953000    2.6834342  0.025208419    28372.625     895285.8 0.0014893364 -0.0032468896 -0.0037278964 
 1954000    2.6800269  0.023470093    28372.625    896122.13  0.003763945 -0.00073585861 -0.0039984516 
 1955000    2.6609215  0.024827473    28372.625    897184.09 0.0021618107 -0.00045859577 -0.0012884143 
 1956000    2.6753004   0.02372252    28372.625    898115.85 0.0035214363 -0.0022472606 -0.0021224358 
 1957000    2.6753061  0.023766929    28372.625    898908.23 0.0010186897 0.00075630408 -0.0024147085 
 1958000     2.651182  0.025567971    28372.625    899681.76 5.0480465e-05 0.0017626273 -0.0056760481 
 1959000    2.6818033  0.024328958    28372.625    900434.84 0.0018744797 -0.0015465621 -0.0051371273 
 1960000    2.6746351  0.024264365    28372.625    901147.53 0.0036511157 0.00047332357 -0.0021840462 
 1961000    2.6724963  0.023751749    28372.625    901654.86 0.0026546949 0.0012020009 -0.00011815788 
 1962000     2.671241  0.023472979    28372.625    901852.75 0.0016468661 0.0050376428 -0.0012432675 
 1963000    2.6942112   0.02391106    28372.625    901966.11 0.0034282536 0.0045472942 -0.0012899543 
 1964000    2.6793504  0.024113589    28372.625    901908.22 0.0022797764 0.0011774799 -0.0053200619 
 1965000    2.6822742  0.024091284    28372.625    901910.28 0.00066290787 0.0043857313 -0.0047860267 
 1966000    2.6740507  0.023592568    28372.625    902198.27 -0.0045454253 0.0026984836 -0.0071768367 
 1967000    2.6993586  0.023575812    28372.625    902745.14 -0.0059328898 0.0018574073 -0.0070386266 
 1968000    2.6460597   0.02607502    28372.625    903399.18 -0.003433144 0.0030056846 -0.0028516975 
 1969000    2.6797279    0.0236922    28372.625    904016.42 -0.0053367383 0.0022277593 -0.001721548 
 1970000    2.6870818  0.023572045    28372.625     904454.5  -0.00453164 0.0012386074 -0.005325632 
 1971000    2.7011113  0.023715881    28372.625    904853.64 -0.0026440041 0.00091824697 -0.004493312 
 1972000    2.6808028  0.023911899    28372.625    905317.16 0.0029736078 0.0027206594 -0.0030100714 
 1973000    2.6806361  0.024435675    28372.625    905781.21 0.0026428005 0.00011651373 -0.0029073389 
 1974000    2.6763265   0.02379682    28372.625    906155.37  0.001252587 0.0008987164 -0.0016202757 
 1975000    2.6696012  0.024203352    28372.625     906401.7 0.0018503825 0.0015257711 -0.0023167609 
 1976000    2.6690658  0.023973134    28372.625    906904.74 0.0016721642 -0.00025147309 -0.0070695324 
 1977000    2.6789929  0.024011313    28372.625    907588.25 0.00042801794 -0.0014811162 -0.0067832303 
 1978000    2.6761349  0.024162192    28372.625    908335.14 -0.0014019942 -0.0010021456 -0.0066037116 
 1979000    2.6906827  0.023604087    28372.625    909160.32 -0.0013644338 -0.0040760653 -0.00093499815 
 1980000    2.6715219  0.025249279    28372.625    909768.19 0.0023458322 -0.005944004 0.00010212279 
 1981000    2.6823364  0.024328889    28372.625    910290.39 0.0036662557 -0.003231317 0.00063684754 
 1982000    2.6758458  0.024587675    28372.625    910772.45 0.0085875484 -0.0081149305 0.0037574125 
 1983000    2.6862682  0.023686291    28372.625     911369.2 0.0043219757 -0.0027193037 0.00098186595 
 1984000    2.6883194  0.023446226    28372.625    912183.96 0.0045810073 -0.0039402324 0.0028499298 
 1985000    2.6728277  0.024348803    28372.625     913086.8  0.007939781 -0.001840982 0.0027213638 
 1986000    2.6885542  0.024267621    28372.625    914056.56 0.0065550738 0.0011388955 -0.0016181384 
 1987000    2.6819417  0.023647094    28372.625    914865.65 0.0035998891 -0.00075201853 -0.0052611468 
 1988000    2.6813412  0.023523888    28372.625    915732.09 0.0028534669 -0.0015097557 -0.0049058742 
 1989000    2.6726618    0.0247546    28372.625    916509.74  0.002883438 -0.0027011072 -0.00033308238 
 1990000    2.6849525  0.024083934    28372.625    917330.13 0.0018395817 -0.0037983727 -0.00048426298 
 1991000    2.6703455  0.025131365    28372.625     917984.4 0.0024154894 -0.0018330638 -0.0012362925 
 1992000    2.6935837  0.023910901    28372.625    918601.68 0.00060910009 -0.0054101615 -0.002027904 
 1993000    2.6796359  0.024179554    28372.625       919133 0.00074565751 -0.005803242 0.0013941721 
 1994000    2.6836241   0.02345274    28372.625    919594.25 -0.00077089592 -0.003824164 -0.00063472045 
 1995000    2.6854764  0.024297297    28372.625    920094.23 -0.0027021131 -0.0037492206 0.0064254408 
 1996000    2.6594064  0.025169686    28372.625    920572.87 -0.0074837409 -0.0012073614 -0.00028231742 
 1997000    2.6709258  0.023580079    28372.625    921081.85 -0.0033375152 -0.0014809854 0.0027225517 
 1998000    2.6475543  0.025777234    28372.625    921454.65 -0.0048828616 -0.004894461 0.0068106712 
 1999000    2.6734651  0.023895829    28372.625     921746.4 -0.0025293324 -0.0025453998 -0.00083745689 
 2000000    2.6857271  0.024602484    28372.625     922220.5 -0.0042937493 0.00091276836 -0.0019163243 
Loop time of 737.673 on 1 procs for 2000000 steps with 256 atoms

Pair  time (%) = 10.3747 (1.40641)
Neigh time (%) = 12.5865 (1.70624)
Comm  time (%) = 5.24185 (0.710592)
Outpt time (%) = 0.185937 (0.0252059)
Other time (%) = 709.284 (96.1516)

Nlocal:    256 ave 256 max 256 min
Histogram: 1 0 0 0 0 0 0 0 0 0
Nghost:    183 ave 183 max 183 min
Histogram: 1 0 0 0 0 0 0 0 0 0
Neighs:    110 ave 110 max 110 min
Histogram: 1 0 0 0 0 0 0 0 0 0

Total # of neighbors = 110
Ave neighs/atom = 0.429688
Neighbor list builds = 158636
Dangerous builds = 3383
#	run			10000
	unfix			1
	uncompute		myKE
	uncompute		myPE
	uncompute		myStress
	uncompute		flux
	uncompute		myDis
	unfix			JJ

	next seed
	next iseed
jump lmp.in.gk loop_seed
variable iseed loop 10
variable seed index 11111 22222 33333 44444 55555 66666 77777 88888 99999 11112
clear

# Lennard-Jones
#Prepare Geometry---------------------------------------------------------------
units			lj
atom_style		atomic
read_data		lmp.in.x0.1
  orthogonal box = (0 0 0) to (30.5 30.5 30.5)
  1 by 1 by 1 MPI processor grid
  256 atoms
#Initialize Structure-----------------------------------------------------------
#mass           	1  1.0
#group         		Ar type = 1
#LJ Potentials------------------------------------------------------------------
pair_style		lj/cut 2.5
pair_coeff		* * 1.0 1.0
pair_modify          	shift yes
#pair_modify   	tail no

#Variables----------------------------------------------------------------------
#LJ Parameters
variable    	kB 		equal 1.3806504e-23 	# [J/K] Boltzmann
variable	sigma_Ar 	equal 3.4e-10 		# m
variable	eps_Ar		equal 1.67e-21		# J
variable	mass_Ar		equal 6.63e-26		# kg
variable	tau_Ar		equal 2.1423e-12	# s
#thermo Parameters
variable    	T_melt 		equal 300*(${kB}/${eps_Ar})
variable    	T_melt 		equal 300*(1.3806504000000001236e-23/${eps_Ar})
variable    	T_melt 		equal 300*(1.3806504000000001236e-23/1.6699999999999999942e-21)
variable	T_0K		equal 0.00001
variable	T_2_5K		equal 2.5*(${kB}/${eps_Ar})
variable	T_2_5K		equal 2.5*(1.3806504000000001236e-23/${eps_Ar})
variable	T_2_5K		equal 2.5*(1.3806504000000001236e-23/1.6699999999999999942e-21)
variable	T_5K		equal 5*(${kB}/${eps_Ar})
variable	T_5K		equal 5*(1.3806504000000001236e-23/${eps_Ar})
variable	T_5K		equal 5*(1.3806504000000001236e-23/1.6699999999999999942e-21)
variable	T_10K		equal 10*(${kB}/${eps_Ar})
variable	T_10K		equal 10*(1.3806504000000001236e-23/${eps_Ar})
variable	T_10K		equal 10*(1.3806504000000001236e-23/1.6699999999999999942e-21)
variable	T_15K		equal 15*(${kB}/${eps_Ar})
variable	T_15K		equal 15*(1.3806504000000001236e-23/${eps_Ar})
variable	T_15K		equal 15*(1.3806504000000001236e-23/1.6699999999999999942e-21)
variable	T_320K		equal 320*(${kB}/${eps_Ar})
variable	T_320K		equal 320*(1.3806504000000001236e-23/${eps_Ar})
variable	T_320K		equal 320*(1.3806504000000001236e-23/1.6699999999999999942e-21)

variable   	dt 		equal 0.002
variable	quench_rate	equal 1.0
variable	quench_length 	equal 10000
#kappa parameters
variable    	p 		equal 200000 		# correlation length
variable    	s 		equal 5  		# sample interval
variable    	d 		equal $p*$s 		# dump interval
variable    	d 		equal 200000*$s 		
variable    	d 		equal 200000*5 		

#SED parameters
variable	w_step		equal 2^5
variable	w_total		equal 2^16
variable	t_total		equal 2^18
variable	num_ffts	equal ${t_total}/${w_total}
variable	num_ffts	equal 262144/${w_total}
variable	num_ffts	equal 262144/65536

#------------ RUN TEMP ---------------------------------------------------------------------
variable 	T_run 		equal ${T_320K}
variable 	T_run 		equal 2.6455576526946114058
#------------ RUN TEMP ---------------------------------------------------------------------

log 	log_heat_${iseed}.lammps
log 	log_heat_10.lammps
