	reset_timestep  	0
	fix 			1 all nve
	compute   		myKE all ke/atom
	compute   		myPE all pe/atom
	compute   		myStress all stress/atom virial
	compute   		flux all heat/flux myKE myPE myStress
	variable  		Jx equal c_flux[1]/vol
	variable  		Jy equal c_flux[2]/vol
	variable  		Jz equal c_flux[3]/vol
	fix       		JJ all ave/correlate $s $p $d c_flux[1] c_flux[2] c_flux[3] type auto file J0Jt_${iseed}.dat ave running
	fix       		JJ all ave/correlate 5 $p $d c_flux[1] c_flux[2] c_flux[3] type auto file J0Jt_${iseed}.dat ave running
	fix       		JJ all ave/correlate 5 200000 $d c_flux[1] c_flux[2] c_flux[3] type auto file J0Jt_${iseed}.dat ave running
	fix       		JJ all ave/correlate 5 200000 1000000 c_flux[1] c_flux[2] c_flux[3] type auto file J0Jt_${iseed}.dat ave running
	fix       		JJ all ave/correlate 5 200000 1000000 c_flux[1] c_flux[2] c_flux[3] type auto file J0Jt_7.dat ave running
#	fix       		JJ all ave/correlate $s $p $d c_flux[1] c_flux[2] c_flux[3] type auto ave running
#	dump			JJ all custom 1000000 J0Jt.dat f_JJ[3] f_JJ[4] f_JJ[5]
	compute 		myDis all msd
	thermo_style 		custom step temp press vol c_myDis[4] v_Jx v_Jy v_Jz
	thermo			1000
	timestep		${dt}
	timestep		0.0020000000000000000416
	run			2000000
Memory usage per processor = 3.08201 Mbytes
Step Temp Press Volume myDis[4] Jx Jy Jz 
       0    2.6403622      0.02334    28372.625            0 -0.0015019017 -0.0011092077 0.0022607494 
    1000    2.6474762  0.023188864    28372.625    30.182339 -0.0014004566 -0.0010956606 8.5111609e-05 
    2000    2.6693048  0.023494768    28372.625     116.3634 -0.00091187337 0.00065199358 0.0013005401 
    3000    2.6470287  0.024403882    28372.625    249.40836 -0.0010989767 -0.0025818815 -0.000298102 
    4000    2.6439917   0.02308408    28372.625    423.74033 -0.0023541684 0.00036636193  0.001158199 
    5000    2.6455796  0.023515653    28372.625    623.76425 0.0006160961 -0.0023739893 -0.0026652356 
    6000    2.6388752  0.023389468    28372.625    857.17824 -0.0027813829 0.00080640355 -0.00026055481 
    7000    2.6408669  0.023212147    28372.625    1118.6816 -0.0040308872  0.001373543 -0.00091746458 
    8000    2.6399906  0.023602858    28372.625    1402.6843 -0.005946803 -0.0056498582 -0.0015667652 
    9000    2.6341942  0.024196911    28372.625    1704.7621 -0.0062850886 -0.00016880879 0.0016189293 
   10000    2.6407567  0.023990131    28372.625     2018.681 -0.00087561233 0.0017057931 -0.0033168989 
   11000    2.6514587  0.023387169    28372.625    2339.7149 0.0032933653 -0.00016475452 -0.007158433 
   12000    2.6401825  0.024891761    28372.625    2702.5622 0.0009781029 -0.0013647195 -0.006099322 
   13000    2.6460593  0.023603164    28372.625    3083.2459 0.0028788361 -0.00014264107 -0.0030752028 
   14000    2.6493661  0.023007511    28372.625    3479.6843 0.0011565432 -0.0013385041 -0.0030906402 
   15000    2.6508961  0.023576044    28372.625    3895.7332 0.0028757475 -0.0032305204 -0.0021475501 
   16000     2.653073  0.023453798    28372.625    4334.8077 0.0059892598 -0.0047282845 -0.00049941791 
   17000    2.6231856  0.024093679    28372.625    4763.8455 0.0034581258 -0.0038735356 0.0011380037 
   18000     2.647987  0.023427975    28372.625    5187.8633  0.002401114 -0.00071641628 0.00078905819 
   19000    2.6487157  0.023503108    28372.625    5613.3196 0.0031626462 -0.0050715452 0.0012121791 
   20000    2.6411247   0.02383469    28372.625    6054.0368 0.0032536079 -0.0068849076 0.0019952252 
   21000    2.6549834  0.023034055    28372.625    6494.5149 0.0060567243 -0.0022861278 0.0020899825 
   22000    2.6465188  0.022921224    28372.625    6921.3247 0.0033286777 -0.0019305345  0.004611588 
   23000    2.6315948  0.024208972    28372.625    7325.0832 0.0045283479 0.0014720465 0.0068918071 
   24000    2.6334758  0.023468821    28372.625    7762.1131 0.0047254815 0.0032835759 0.0062986604 
   25000    2.6486461  0.023720257    28372.625      8221.15 0.0050709182 -0.0016886847  0.005693104 
   26000    2.6423846  0.023251146    28372.625    8688.6078 0.0024277504 -0.0028714929 0.0027740952 
   27000    2.6456988  0.023635223    28372.625    9129.4142 0.0025259435 -0.00096771365 0.0033129807 
   28000      2.64364  0.023431202    28372.625    9560.8068  0.002388452 0.0014279635 0.0037245937 
   29000    2.6366504  0.023324138    28372.625       9988.7 0.0033198362 0.0024267802 0.0040651119 
   30000    2.6306768  0.024182812    28372.625    10445.781  0.003421348 0.0048898284 0.0018828119 
   31000    2.6402871  0.023675542    28372.625    10893.296 -0.0005368613 0.0031195694 0.0036724104 
   32000    2.6357145  0.023120196    28372.625    11349.196 -0.0015828445 0.0021507779 0.0034557807 
   33000    2.6451477  0.023344615    28372.625    11843.092 -0.001919577 0.0046485405 0.0037515457 
   34000    2.6465014  0.023464109    28372.625    12349.541 -0.00076210772 0.0058699941 0.0061808508 
   35000    2.6367488  0.023433681    28372.625    12869.844 0.00041641664 0.0039729199   0.00692489 
   36000    2.6461625  0.023279699    28372.625    13417.306 -0.00045573719 -0.00044980091 0.0068080572 
   37000    2.6489591  0.023457822    28372.625    13932.849 -7.7485435e-05 0.00093935578 0.0078620347 
   38000    2.6528431  0.024033269    28372.625    14482.251  0.003232113 0.0013523081 0.0030363057 
   39000    2.6346058  0.024610889    28372.625    15008.971 0.00068335807 0.0020669275 0.0033490077 
   40000    2.6490728  0.023253444    28372.625     15548.21 0.00037837283 0.0015084622 0.0056843954 
   41000     2.651477  0.024043799    28372.625    16071.569 0.00067467551  0.001519853 0.0059559147 
   42000    2.6381047   0.02343969    28372.625    16589.198 0.0021680432 -0.0031108757 0.0045518468 
   43000    2.6448394  0.023551221    28372.625    17140.782  0.001866272 -0.0032752949 0.0077937815 
   44000    2.6321232  0.024004919    28372.625    17718.061  0.001889503 -0.00091577538 0.0057911736 
   45000    2.6432815  0.023404398    28372.625     18253.23 0.00032674526 -0.0026469501 0.0070232497 
   46000    2.6390941  0.023146606    28372.625    18826.066 -0.00070011725 -0.0023514474 0.0071209976 
   47000    2.6313766  0.023162359    28372.625    19431.703  0.002190931 -0.0028078577 0.0082465448 
   48000    2.6352773  0.023243711    28372.625    20012.694 0.0021358087 -0.00087546724 0.0075233069 
   49000    2.6535416  0.023071019    28372.625    20556.555 0.00034387573 0.00066145911 0.0056245755 
   50000    2.6401797  0.023997764    28372.625    21073.773 -0.001728669  0.001791593 0.0052107601 
   51000     2.646329  0.023267372    28372.625    21550.073 0.0013376762 -5.0668686e-05 0.0039744404 
   52000    2.6368516  0.023571066    28372.625     22013.74 3.4961223e-05 -0.0011108496 0.0022882799 
   53000    2.6325331   0.02398262    28372.625    22531.932 0.0015972742 -0.00040845199 0.0021314895 
   54000    2.6408961  0.024102732    28372.625    23109.853 -0.0012895298 0.0025104977 0.0020162459 
   55000     2.631041  0.023527611    28372.625    23668.526 -0.0017997268 -0.0030208739 0.0035344047 
   56000    2.6439621  0.023374718    28372.625    24204.641 0.0013372843 -0.0025353272 0.0031499324 
   57000    2.6361362  0.023596688    28372.625    24755.679 0.00072511259 -0.00049293222 0.0012353828 
   58000    2.6484755  0.023340296    28372.625    25305.176 0.00029695884 -0.0032918379 0.0040479457 
   59000    2.6386263  0.023296847    28372.625    25843.314 -0.00016987452 -0.001505738 0.0028818669 
   60000    2.6324182  0.024217965    28372.625    26387.843 -0.0034445576 -0.00092690047 0.0024926009 
   61000    2.6473918   0.02339211    28372.625    26949.936 -0.0011103584 -0.0018193671 0.0032987402 
   62000    2.6332445  0.023156403    28372.625    27523.923 -0.000828545 -0.0018193269 0.0059024114 
   63000     2.634815  0.023545545    28372.625    28072.182 0.0026163197 0.0013123543  0.010484942 
   64000    2.6413743  0.023715831    28372.625    28577.597 0.0047391519 -0.0026822859 0.0078335168 
   65000    2.6472574  0.023965467    28372.625    29019.288 0.0043000808 -0.0020584507 0.0024203987 
   66000    2.6398961  0.024088714    28372.625     29407.71 -0.00050008061 -0.0052702202 0.0067374419 
   67000    2.6345056  0.024463956    28372.625    29798.686 -0.0029948685 -0.0030789257 0.0048310484 
   68000     2.647197  0.024719242    28372.625     30133.17 -0.001508604 -0.0037181734 0.00010101286 
   69000    2.6498663  0.023293446    28372.625     30476.05 0.0016700296 -0.0032011798 0.00062925331 
   70000    2.6349971  0.023754301    28372.625     30871.67  0.001971795 -0.0044118101 -0.0014024501 
   71000    2.6552899  0.024057251    28372.625    31300.172 0.0024378904 -0.0036780583 -0.0013392957 
   72000    2.6604737  0.023590195    28372.625    31782.612 0.00054144322 -0.0025021825 0.0018212742 
   73000    2.6207538  0.025113844    28372.625    32293.986 0.00069096226 -0.0025052387  0.001192745 
   74000    2.6545078  0.024058005    28372.625     32862.41 0.0026096065 -0.0033214416 0.0026300578 
   75000    2.6345416  0.023565529    28372.625    33440.828 0.0068099844 -0.0044711498 0.0022616874 
   76000    2.6452803   0.02357808    28372.625    34037.981 0.0079001946 -0.0058524633 0.0033821856 
   77000    2.6471108  0.023834363    28372.625    34630.434  0.006082841 -0.0073395887 0.00031137661 
   78000    2.6519788  0.023829562    28372.625     35149.33 0.0075320067 -0.0046264796 0.0019947853 
   79000    2.6579653  0.024350494    28372.625    35610.969 0.0050730105 -0.0087703324 0.0032343122 
   80000    2.6461364  0.023661553    28372.625    36054.177 0.0051193343 -0.0088791031 0.00013495554 
   81000    2.6555598   0.02356588    28372.625    36524.356 0.0050132648 -0.0075026017 0.0015479646 
   82000    2.6498678  0.023415737    28372.625    36992.053 0.0073286895 -0.0053709015 0.0025092876 
   83000    2.6396566  0.023444562    28372.625    37419.336 0.0010175174 -0.0024229244 0.0038038433 
   84000    2.6404872  0.023872589    28372.625    37841.378 0.00065914422 -0.0025202774 0.0021951957 
   85000    2.6406645  0.023845065    28372.625    38210.896 0.00059157332 -0.0049853726 0.0049762664 
   86000    2.6348515  0.023437722    28372.625    38599.225 -0.0013037697 -0.0066138481 0.0043408244 
   87000    2.6327683  0.023113373    28372.625    39045.569 -0.00047867666 -0.0062514531 0.0022397792 
   88000    2.6414837  0.024112009    28372.625    39546.368 0.00049204103 -0.0055349448 0.0032165298 
   89000     2.647917  0.023475763    28372.625    40055.481 -0.00013003754 -0.0074894949 0.0026073001 
   90000    2.6401694  0.023263207    28372.625    40539.233 0.0011991451 -0.0060637666 0.0033937504 
   91000    2.6385915  0.023097266    28372.625    41027.951 0.0046568678 -0.0070246237  0.002983902 
   92000    2.6410039  0.023972662    28372.625    41534.923  0.002984615 -0.0037986667 0.0024736039 
   93000    2.6482899  0.023292998    28372.625    42047.532 0.0046633972 -0.004741668 0.0033650012 
   94000    2.6286066  0.024814385    28372.625    42496.602 0.0062622501 -0.0015803486 0.00061845418 
   95000    2.6396719  0.023095803    28372.625    42966.665 0.0041662914 -0.0028799837 0.0018987624 
   96000    2.6385998  0.023076239    28372.625    43462.453 0.0019252561 -0.0056185037 0.0047087326 
   97000    2.6418338  0.024413254    28372.625    43940.615 0.0028600373 -0.0048782752 0.0026291531 
   98000      2.64768  0.023599994    28372.625    44378.298 0.0031182233 -0.0043071288 0.0040362918 
   99000     2.646189  0.023909546    28372.625    44829.964 0.0023753122 -0.00018793613 -0.0023931888 
  100000    2.6443758  0.024105633    28372.625    45256.404 0.0075758204 0.0041959097 -0.0060830549 
  101000    2.6410005  0.023143685    28372.625    45760.884 0.0049454122 0.0016810092 -0.0018646364 
  102000    2.6519647   0.02403233    28372.625    46195.238  0.003949274 0.0027226372 0.0015517931 
  103000    2.6366828  0.024034384    28372.625    46594.649 0.0025697105 0.00030480902 0.00065826793 
  104000     2.647383  0.023505708    28372.625    47021.938 0.0025365195 0.0020990756 0.0037167743 
  105000    2.6567305  0.023441303    28372.625    47483.451 0.0030313442 0.0017048189 0.0019052768 
  106000     2.652706  0.023250142    28372.625    47894.387 0.0061062521 0.0019783235 -0.0023616223 
  107000    2.6435579  0.023184155    28372.625    48299.215 0.0031911321  0.002471872 -0.0025732593 
  108000    2.6340079  0.024010812    28372.625    48744.699  0.001058876 0.0028038552 -0.0042572434 
  109000    2.6541866  0.023373382    28372.625    49143.288 0.00057465774 0.0035494816 -0.0044101837 
  110000    2.6459959  0.023368645    28372.625    49576.814 -0.0021462683 0.0030854483 -0.0049478126 
  111000    2.6503543  0.023440119    28372.625    49989.224 0.0017914045 0.00034664717 -0.0043435613 
  112000    2.6353729   0.02361183    28372.625    50351.728 -0.0011754966 0.00067278894 -0.001716394 
  113000     2.645938  0.023408851    28372.625    50771.773 -0.00082934838 0.0017785462 -0.0020372178 
  114000     2.630734  0.024244712    28372.625    51257.831 -0.0021001097 0.0030571183 -0.0020085616 
  115000    2.6340869   0.02339578    28372.625    51784.548 -0.0020540064 0.0041790664 -0.0011286132 
  116000    2.6281094  0.023459433    28372.625    52361.264 -0.0019429668 0.0026649391 -0.00018927306 
  117000    2.6434369  0.023018606    28372.625    52976.891 -0.0001805676 0.0020231236 -0.00051540609 
  118000     2.648982   0.02351775    28372.625    53582.825 -0.0004284894 0.00048495429 3.5556971e-05 
  119000     2.655352  0.023982122    28372.625    54194.661 -0.001406506 0.0040708187 -0.0029698905 
  120000    2.6425768  0.023735483    28372.625    54756.143 0.00025965793 0.00011641847 -0.0020694826 
  121000     2.659977  0.024314855    28372.625    55315.438 0.0011929982 -0.00044863634 -0.0010136071 
  122000    2.6366834  0.024199779    28372.625     55921.11 0.00031054157 0.00071397045 -0.0010541382 
  123000    2.6507741  0.023088967    28372.625    56546.681 -0.0033574628 0.0035146809 0.00059743697 
  124000    2.6492894  0.024846622    28372.625    57158.324  -0.00134664 0.0047760946 0.0038108723 
  125000     2.637901  0.023385061    28372.625    57762.576 -0.0017908131 0.0021053498 0.0072299925 
  126000      2.64613  0.023597978    28372.625    58362.849 0.0010258264 0.00091833364 0.0032161904 
  127000    2.6374346  0.023105758    28372.625    58992.005 -0.00016844012 0.00069249872  0.004398649 
  128000    2.6498746  0.023237416    28372.625    59609.524 0.0017455353 -0.0010300976 0.0013659699 
  129000    2.6378025  0.023138453    28372.625    60292.659 -0.00068202033 -0.001667072 0.0014472433 
  130000    2.6467234  0.023924631    28372.625    61021.035 0.0010091737 -0.0024352216 -0.00089954675 
  131000    2.6544649  0.023524693    28372.625    61756.616 0.0010990963 -0.0044777992  0.001404822 
  132000    2.6395729  0.023377778    28372.625    62516.001 0.00013396657 -0.0056446067 0.0036684983 
  133000    2.6579283  0.023403978    28372.625    63236.394 -0.0010974129 -0.0042157009 -8.1457968e-05 
  134000    2.6420313  0.023777549    28372.625    63908.517 -0.0029129026 -0.0031621567 0.00028508748 
  135000    2.6587959  0.023471552    28372.625    64496.644 -0.00088718502 -0.0020410261 -0.00061275094 
  136000    2.6449304  0.023608844    28372.625    64989.905 0.00054244959 0.0003414746 0.00079028954 
  137000    2.6369763  0.024381842    28372.625    65530.169 -0.0030655185 0.0021155022 0.00097571375 
  138000    2.6484163  0.024827117    28372.625    66110.048 -0.003976823 0.0025865959 0.0031684473 
  139000    2.6406071  0.024701533    28372.625    66615.096 -0.0029527578  0.006937414 0.00015105129 
  140000    2.6382009  0.023410738    28372.625     67094.43 -0.0012636339  0.003841599 4.8074887e-05 
  141000     2.652025  0.023467769    28372.625    67600.874 0.0019092919 0.0027429958 -0.0021576633 
  142000     2.645444  0.023508184    28372.625    68111.247 -0.0022894468 0.0041696571 -0.0013986381 
  143000    2.6536931   0.02370279    28372.625    68617.343 0.0031189903 0.0029052475 -0.0014704646 
  144000    2.6484643  0.023479549    28372.625     69112.53  0.003392186 0.0010647955 -0.0015292185 
  145000    2.6502346  0.023588767    28372.625    69626.396 -0.0011031634 -0.00098924028 0.00018493313 
  146000    2.6547157  0.023479448    28372.625    70077.531 -0.0010461756 0.0005453334 0.00011987738 
  147000    2.6435903  0.023560275    28372.625    70529.099  0.001520954 0.0017468047 -0.0026006407 
  148000    2.6540494  0.023531796    28372.625    71012.131 0.00086789799  0.001434067 -0.0021737728 
  149000    2.6385329  0.023421228    28372.625    71323.586 -0.00022557844 0.0018206032 0.00057874161 
  150000    2.6456674  0.023089881    28372.625    71673.409 -0.00028549894 0.0028999778 -0.0016644346 
  151000    2.6450166  0.023291038    28372.625    72126.446 -0.0012986555 0.0024595478 -0.0028681486 
  152000    2.6501435  0.023463217    28372.625    72609.739 -0.0015091638 0.0037537854 -0.0011695442 
  153000     2.650812  0.023648729    28372.625    73115.178 -0.0025304038 0.00044085378 0.00025875968 
  154000    2.6196631  0.025280403    28372.625    73676.049 0.0089819211 -0.0018956472 0.0019850503 
  155000     2.634508  0.023125285    28372.625    74254.086 -0.0037727071 0.0027430903 0.0019254459 
  156000    2.6197728  0.025112456    28372.625    74883.269 -0.00029159151  0.002987353 0.0038421184 
  157000    2.6420854    0.0231235    28372.625    75586.866 -0.00048115939 0.00098190893 0.00012907115 
  158000    2.6519943  0.023686658    28372.625    76285.974 -0.0054077009 0.0025063798 -0.00027196068 
  159000      2.65229  0.024077121    28372.625    76947.813 -0.0043393723 -0.00014584741 0.00038826386 
  160000     2.638114  0.023333995    28372.625    77637.198 -0.0056592413 -0.0023356541 -0.0031073096 
  161000    2.6460661  0.023560688    28372.625    78278.718 -0.0042036791 -0.0014357243 -0.00024374069 
  162000    2.6385317  0.024393645    28372.625    78819.878 -0.0034093334 -0.00081190019 -0.0017628448 
  163000     2.637451  0.024140017    28372.625    79344.824 -0.0035501015  0.003975954 -0.0049862514 
  164000    2.6390764  0.024174018    28372.625    79865.456 -0.00050708516 -0.00038666904 -0.005034497 
  165000    2.6481712  0.023576591    28372.625    80379.687 0.0035227319 -0.00093248523 -0.0042560738 
  166000    2.6481955  0.022970035    28372.625    80904.786 0.0055672716 -0.002953652 0.0008859754 
  167000    2.6535598  0.023873067    28372.625    81379.874 0.0064586624 0.00024062687 -0.0026546507 
  168000    2.6437122  0.023865402    28372.625    81828.043  0.007228484 0.00052047785 -0.0031706141 
  169000    2.6479073  0.023806557    28372.625    82292.752  0.011411812 0.0010428443 -0.0014293417 
  170000    2.6581456  0.023950998    28372.625    82794.634 0.0095999301 0.0054536877 -0.0017017263 
  171000    2.6429268  0.023186211    28372.625    83273.655  0.009900978 0.00073825379 -0.0026941219 
  172000    2.6367851  0.023766304    28372.625     83831.19 0.0088185724 0.0029983083 -0.0023024327 
  173000    2.6446008  0.023396874    28372.625    84420.179 0.0069304133 0.0026932371  0.001806385 
  174000    2.6541548  0.023362183    28372.625    84976.644 0.0057290665 0.0025902703 0.0023826151 
  175000    2.6197249  0.024892683    28372.625    85533.161 0.0045295329 0.0050449614 0.0014143175 
  176000    2.6446328  0.023531918    28372.625    86124.506 0.0031474867 0.0034355285 0.0015305007 
  177000    2.6474638  0.023098396    28372.625    86809.186 0.0039824011 0.0015992366 0.00035331459 
  178000    2.6526228  0.023624535    28372.625    87561.309 0.0037780974 -0.00016493646 0.0029110147 
  179000    2.6496651  0.023989352    28372.625    88395.197 0.0053812235 0.0017356031 -0.00030774969 
  180000    2.6247069  0.024797155    28372.625    89159.771 0.0048400519 0.00025728076  0.003328586 
  181000    2.6358635  0.023939953    28372.625    89827.973 0.0033918052 -0.0026169778 0.0016185567 
  182000    2.6443384  0.023467701    28372.625    90363.236 0.00035338245 0.00041484618 -9.0348567e-05 
  183000    2.6277872  0.023364433    28372.625    90892.019 0.00031929127 -0.00036909766 0.0021862369 
  184000    2.6369077  0.023300869    28372.625    91549.192 0.00045909947 -0.0014920206 0.0021142647 
  185000     2.636168  0.024109142    28372.625    92209.874 -0.0017816819 -0.0016848934 -0.0021890197 
  186000    2.6522713  0.023074288    28372.625    92873.436 1.3448101e-05 -0.00073565076 0.00095746774 
  187000    2.6266812  0.024390152    28372.625    93493.645 0.00018509483 0.00016854783 0.0018289261 
  188000    2.6393984  0.024224342    28372.625    94042.544 0.0019261202 0.00076888109 0.0020224642 
  189000    2.6545208  0.023312341    28372.625    94621.705 0.0043366471 0.00067600379 0.0012618046 
  190000    2.6543156  0.024189251    28372.625    95229.412 0.0069717459 0.0017027405 -0.0028838936 
  191000     2.655781  0.023779213    28372.625    95838.074 0.0044061384 -0.00031139287 -0.0018497363 
  192000    2.6363426  0.023360361    28372.625    96392.726 -8.8060915e-06 0.00035890674 -0.0048824236 
  193000    2.6360789  0.023709434    28372.625    97008.578 0.0021882471 0.0013051564 -0.0039942705 
  194000    2.6400088  0.023619063    28372.625     97668.19 0.0026375106 0.00062825648 -0.0023073632 
  195000    2.6347075   0.02386313    28372.625    98386.336 0.00040243353 -0.00076451481 -0.0063418077 
  196000    2.6380361  0.023886849    28372.625     99038.04 -0.001686617 0.0039948402 -0.0034783646 
  197000    2.6447269  0.023600592    28372.625     99587.83 -0.0018667655 0.0046203686 -0.0036614116 
  198000    2.6416293  0.023842745    28372.625    100128.68 0.00052091656 0.0054608832 -0.0056879573 
  199000    2.6373102  0.023320832    28372.625    100736.24 -0.0021308132 0.0036424133 -0.0021496347 
  200000    2.6359299  0.023906823    28372.625    101252.44 -0.0031097062 0.0049373106 -0.0035234507 
  201000    2.6437064  0.023731591    28372.625    101692.23 -0.0037383023 0.0031596846 -0.0044746133 
  202000    2.6368226  0.023818543    28372.625    102098.44 -0.0024474145 0.0031029686 -0.0034123352 
  203000    2.6451369  0.023904515    28372.625    102494.64 -0.00063914865 0.0027986454 -0.0028901064 
  204000    2.6481172   0.02317556    28372.625    102946.55 0.0016743617 0.0023302595 -0.0032284667 
  205000    2.6298994  0.024411907    28372.625    103443.36 0.0022662082 0.00065290976 0.0015259531 
  206000    2.6457312   0.02415369    28372.625    103882.19 0.0018663035 -0.00056924262 -0.0012044109 
  207000    2.6408487    0.0232573    28372.625    104383.05 -0.00011541688 -0.0018870322 0.0013027084 
  208000    2.6536436  0.022931602    28372.625    104852.34 0.00017639863 -0.0018929371 0.0038487366 
  209000    2.6457405  0.023223634    28372.625    105309.22 0.00094426353 -0.00056937306 0.0048125591 
  210000    2.6466166  0.023106652    28372.625    105810.07 0.0026701411 -0.0018482513 0.0033038749 
  211000    2.6248614  0.025077925    28372.625     106291.1 0.0069551419 -0.0071936755 0.0020396925 
  212000     2.643976  0.023326009    28372.625    106701.71 0.0039188082 -0.0035340049 0.0036449994 
  213000    2.6484149   0.02356344    28372.625     107069.2 0.0021278233 -0.0018327332 0.0039069282 
  214000    2.6510401  0.023649928    28372.625    107473.35 0.00092164796 0.0020492013 0.0015546549 
  215000    2.6529966  0.023670698    28372.625    107912.07 -0.00063837933 0.0017189363 0.00093874418 
  216000    2.6469497   0.02346055    28372.625    108279.59 -0.0020366209 0.0017036346 0.0046520803 
  217000    2.6516879  0.023530351    28372.625    108629.79 -0.00079450744 0.0029597768 0.0063637482 
  218000    2.6618904  0.023959706    28372.625    109020.69 -0.0025567837 0.0014644083 0.0054724062 
  219000    2.6414679  0.023476304    28372.625    109507.07 -0.00046164003 -0.0016092071 0.0028462279 
  220000    2.6502743  0.023479284    28372.625    110074.09 -0.0017972774 -0.0049230332 0.0023724671 
  221000    2.6487337  0.023644349    28372.625    110611.28 -0.0051931492 -0.0040290564 0.0020536541 
  222000    2.6508698   0.02382313    28372.625    111109.72 -0.0020796993 -0.0032641822 0.0043768625 
  223000    2.6496922  0.023585303    28372.625    111630.11 -0.0017772588 -0.0034594473 0.0047517019 
  224000     2.652807  0.023298758    28372.625     112156.6 5.9193641e-05 -0.0048731413 0.0042530525 
  225000    2.6417626  0.024557203    28372.625    112644.46  0.002058967  -0.00384585  0.001557351 
  226000    2.6482674  0.023448533    28372.625    113186.22 -0.0010147794 -0.0019086976 -0.00061858006 
  227000    2.6329687  0.024700563    28372.625    113819.67 -0.0032488918 0.0018452667 -0.0006799899 
  228000    2.6439363   0.02448054    28372.625    114456.25 -0.0019740421 -0.0011500427 0.0040773995 
  229000    2.6403463  0.024187953    28372.625    114995.36 -0.00068779324 -0.0015516691 -0.0016910829 
  230000     2.648316  0.024220863    28372.625    115494.65 0.00035368365 -0.00068012394 -0.0019273643 
  231000    2.6502442  0.024283056    28372.625     115872.5 0.0044304809 -0.0022573732 -0.0034341846 
  232000    2.6413495  0.023555829    28372.625     116189.2 0.0026440339 -0.0026136636 -0.0047566245 
  233000     2.634328  0.023267382    28372.625    116551.51 0.0042206902 -0.0026398734 -0.0029140266 
  234000    2.6467205  0.023311618    28372.625    116922.68 0.0055143921 -0.0025626166 -0.0008799104 
  235000    2.6381657  0.023594141    28372.625    117331.47 0.0025872432 -0.0015663424 -0.0014501641 
  236000    2.6329085  0.023278108    28372.625    117718.49 0.0040650821 -0.0022840533 0.0019170938 
  237000    2.6392991   0.02352437    28372.625    118097.62 0.00026165438 -0.0015403065 -0.0016994208 
  238000    2.6506134   0.02425178    28372.625    118536.39 0.0009353605 -0.0048456095 -0.00016411998 
  239000    2.6431934  0.023708433    28372.625    118986.75 0.0060941041 -0.00085630156 0.0026073956 
  240000     2.653164  0.023292564    28372.625    119432.55 0.0021504515 -0.00032360349 0.00082882138 
  241000    2.6474195  0.023815061    28372.625    119996.54 0.00039758145 0.0020370115 0.00086210658 
  242000     2.637294  0.023830292    28372.625    120606.01 0.0014665948 0.0035473921 -0.00031123482 
  243000     2.649403  0.023104892    28372.625    121131.24 0.0064350348 0.0027061659 -0.0017468538 
  244000    2.6395162  0.023211889    28372.625     121653.9 0.0081310817 0.0030713936 -0.0017268746 
  245000    2.6403936  0.023348468    28372.625    122135.89 0.0028616877 -0.0016474307 7.8009927e-05 
  246000    2.6434591  0.023663555    28372.625     122621.1 0.0027963965 -0.0041075125 0.0015060806 
  247000    2.6419918  0.023196357    28372.625    123055.43  0.004670523 -0.0052955521 0.0013092934 
  248000    2.6470795  0.023684392    28372.625    123419.32 0.0030308526 -0.0043131943 0.0063045693 
  249000    2.6455613  0.023373238    28372.625    123790.06 0.0040774458 -0.0042164128 0.0041126187 
  250000    2.6508056  0.023259811    28372.625    124207.11 0.0037227273 -0.0057222928 0.0067649015 
  251000    2.6033928  0.026252539    28372.625    124609.48  0.011639992 -0.011065691  0.012676291 
  252000    2.6461008  0.023482642    28372.625    124957.03  0.004483614 -0.004343239 0.0016006149 
  253000    2.6355168  0.023591237    28372.625    125258.88 0.0056361791 -0.0042458583 0.0038193082 
  254000    2.6587406  0.022906624    28372.625    125550.26 0.0050038103 -0.0030991309  0.003772376 
  255000    2.6484781  0.024006703    28372.625    125777.18 0.0047653045 0.0018708154 0.0017270517 
  256000    2.6388829  0.023560911    28372.625    125992.99 0.0043140079 0.00075863374 0.0017517539 
  257000    2.6529283  0.023804007    28372.625    126263.29 0.0061993851 -0.003311486 0.0032681343 
  258000    2.6384773  0.023803431    28372.625    126686.93 0.0063519869 -0.00095144625 0.0062311262 
  259000    2.6542457  0.023199251    28372.625    127077.48 0.0064841774 -0.001291774 -0.0030468504 
  260000    2.6518509  0.023404816    28372.625    127443.77 0.0044432945  -0.00171055 0.0014341882 
  261000    2.6393599  0.023579506    28372.625    127838.73 0.0048487329 0.00047596874 0.0012256897 
  262000    2.6513562  0.023518752    28372.625    128183.21 0.0043543826 -0.0013341904 0.00092743005 
  263000    2.6538745  0.023499746    28372.625    128542.39 0.0033482701 -0.0020969503 0.0024542573 
  264000     2.645138  0.024506391    28372.625    128861.21 0.0030064855 -0.0010528073 0.00030539307 
  265000    2.6433732  0.023103016    28372.625    129265.17  0.004786257 -0.0019635776 0.0012538419 
  266000    2.6522077     0.024241    28372.625    129588.56  0.001918284 -0.0038420466 5.9360571e-05 
  267000    2.6026479  0.026810357    28372.625    129918.67 0.0030155704 -0.0035048358 0.0040579806 
  268000     2.635538  0.023934181    28372.625    130267.39 0.0046568086 -0.0010808471 -0.0029286899 
  269000    2.6392433  0.023142937    28372.625    130589.69 0.0045619401 -0.0029157548 -0.0042511704 
  270000    2.6504043  0.023447806    28372.625    130844.05 0.0032399119 -0.001496199 -0.0040821457 
  271000    2.6469496  0.023245866    28372.625    131088.71 0.0045619856 -0.0024972956 -0.0047956176 
  272000    2.6338625  0.023923524    28372.625    131433.26 0.0029277746 -0.0039413278 -0.0030016741 
  273000    2.6415131  0.023545608    28372.625    131724.42 0.0032330775 -0.0020719014 -0.0057832696 
  274000    2.6358071  0.023748651    28372.625    132066.55    0.0078173   0.00088712 -0.0052586016 
  275000    2.6447618  0.023177724    28372.625    132455.62 0.0053274593 0.0011906779 -0.0014491891 
  276000    2.6342025  0.023652799    28372.625    132890.98 0.0048430195 -0.00052050782 -0.0016530079 
  277000    2.6402421  0.023498432    28372.625     133307.8 0.0036554751 -0.00049277978 -0.0014435813 
  278000    2.6477072  0.023569856    28372.625    133783.37 0.0023022574 0.0016456232 -0.0041548704 
  279000    2.6314491  0.024903645    28372.625    134327.16 0.0022575272 0.0024808694 -0.0052787216 
  280000    2.6398141  0.023274775    28372.625     134727.7 0.0012064009 0.0048861833 -0.00099373821 
  281000    2.6312886  0.023763235    28372.625    135170.45 0.0014957481 0.0041464624 9.4825007e-05 
  282000    2.6592443    0.0235525    28372.625    135672.01 0.00011463848 0.0061670085 -5.9176131e-05 
  283000    2.6457886  0.023637459    28372.625     136126.7 -0.00073942547 0.0064300613 -0.00050176579 
  284000     2.652932   0.02421795    28372.625    136668.12 -0.0012682019 0.0053121038 -0.0011200526 
  285000     2.642506  0.023433117    28372.625    137230.58 -0.00067152591 0.0067857626 -0.0010449899 
  286000    2.6416009  0.023113402    28372.625    137785.05 0.0019574753 0.0090532415 -0.0015173712 
  287000    2.6354739  0.024066997    28372.625    138381.34 0.0020563717 0.0085763844 0.00048324146 
  288000    2.6339024  0.023724956    28372.625    138977.05 0.0011012742 0.0065628213 -0.00015473538 
  289000     2.651231  0.023470792    28372.625    139454.81 -0.00079549326 0.0086260797 0.00058583835 
  290000    2.6447176  0.023465712    28372.625    139938.43 -0.0049136113 0.0092066978 -0.00011465156 
  291000    2.6426022  0.023323155    28372.625    140495.72  -0.00395056 0.0073726266 0.00033849619 
  292000    2.6402263  0.023246796    28372.625    141068.79 -0.0035458715 0.0047959308 0.0010230573 
  293000    2.6353745  0.023546228    28372.625    141605.99 -0.0051158698  0.003673241 -0.0024204652 
  294000    2.6563831  0.023574168    28372.625    142020.44 -0.0083131624 0.0021356706 0.00032653205 
  295000    2.6409852  0.023370232    28372.625    142395.14 -0.0094511894 -0.00029403891 -0.00024063796 
  296000    2.6375915  0.023628416    28372.625    142847.96 -0.010103936  0.004822294 0.0001723385 
  297000    2.6268884  0.025800674    28372.625    143438.44 -0.0091197745 0.0042092447 0.00013597947 
  298000     2.642905  0.024248258    28372.625    144074.08 -0.0051721463 0.0069231001  0.006547013 
  299000    2.6380351  0.023574083    28372.625    144732.96 -0.0054709005 0.0072238719 0.0067813419 
  300000    2.6462888  0.023881077    28372.625    145407.64 -0.0038814334 0.0066055401  0.008884674 
  301000    2.6413253  0.024697412    28372.625    146026.95 -0.0029648465 0.0083818731 0.0062421365 
  302000    2.6534888  0.023987578    28372.625    146658.31 -0.0040351196 0.0074204034 0.0017072267 
  303000    2.6577293  0.023485131    28372.625    147201.96 -0.0058551624 0.0039212555 0.0051745474 
  304000    2.6508321  0.023310093    28372.625    147757.55 -0.0059258603 0.0031472293 0.0069230704 
  305000     2.629645  0.024379188    28372.625    148305.16 0.0021824553 0.0055128484 -0.0020205102 
  306000    2.6428375  0.023568379    28372.625    148837.62 0.0030779392 0.0024361435 0.0035489541 
  307000    2.6457535  0.023469945    28372.625    149352.31 0.0027770206 0.0052080706 0.0040889405 
  308000    2.6303208  0.024918576    28372.625    149876.13 0.0019468156 0.0053581487 0.0040961854 
  309000    2.6485658  0.023899899    28372.625    150402.35 0.00044815954 0.0043661678 0.0077578365 
  310000    2.6445343  0.023978681    28372.625    150992.73 0.00014783035 0.0019577451 0.0092203459 
  311000    2.6520206  0.023249444    28372.625    151603.34 0.0032911976 0.00053936897 0.0077204883 
  312000    2.6399418  0.024209751    28372.625     152274.1 0.0028170414  0.001196044 0.0062389794 
  313000    2.6344023  0.023217173    28372.625    152904.76 0.0015846099 -0.0011338923 0.0031128087 
  314000    2.6593691  0.023839728    28372.625    153468.93 -0.00036138692 -0.0044371296 -0.0015342845 
  315000    2.6499954  0.024037072    28372.625    154077.42 0.0018491165 -0.0007591336 -0.00069567434 
  316000    2.6358821  0.023219132    28372.625    154745.63 0.0014140802 -0.0019532765 -0.0025966188 
  317000     2.632586  0.024062099    28372.625    155446.21 0.0030644356 -0.0012777456 -0.00020755958 
  318000    2.6453955  0.023099677    28372.625    156073.45 0.0053535176 -0.001744823 0.0016018155 
  319000    2.6422317  0.023082402    28372.625    156743.05 0.0047167901 -0.00063469555 0.0039914505 
  320000    2.6305507  0.023304655    28372.625    157381.56 0.0056990211 -0.0023332467 0.0011792055 
  321000    2.6435916  0.023621925    28372.625    158099.77 0.0074338966 -0.0012598515 0.0016026679 
  322000    2.6367031  0.023522705    28372.625    158792.14  0.009486165 -0.001778972 -0.0020540099 
  323000    2.6421153  0.023458765    28372.625    159439.06  0.011751563 -0.0011038972 -0.0040358248 
  324000    2.6335315   0.02324687    28372.625    160088.42  0.013712705 -0.0014670287 -0.0061782948 
  325000    2.6307373  0.023661635    28372.625    160660.84  0.011065636 0.0013557535 -0.0022361238 
  326000    2.6427393   0.02359315    28372.625    161152.88 0.0074401519  0.001219181 0.00033209399 
  327000    2.6454312  0.023121224    28372.625    161587.08 0.0068898802 -0.00012328334 0.0014594493 
  328000    2.6410352  0.023372388    28372.625    162075.72 0.0036922734 0.0014036645 0.0011131654 
  329000    2.6595714  0.023685764    28372.625    162546.44 0.0043581911 0.0018091559 0.0010433678 
  330000    2.6486674  0.023576404    28372.625    163006.77 0.0043215126 0.0014831208 8.0009027e-05 
  331000    2.6255942  0.024509857    28372.625    163473.76 0.0075664521 -0.0025577586 -0.0032426856 
  332000    2.6408604  0.023309497    28372.625    163978.07   0.00697087 0.0028898371 -0.0013032257 
  333000    2.6520625  0.023397371    28372.625    164545.62 0.0086766737 -0.00025585148 0.00059958718 
  334000    2.6448814  0.023496067    28372.625    165144.14  0.010042558 0.0019797445 0.00083138552 
  335000    2.6469845  0.023310721    28372.625    165785.69 0.0099233034 0.0021545341 -0.00034550167 
  336000    2.6491773  0.023193449    28372.625    166406.74 0.0073105168 0.0031647129 -0.0014946473 
  337000    2.6409261  0.024190146    28372.625    166919.84 0.0068931336 0.0037445361 0.00023637161 
  338000    2.6580766  0.023293739    28372.625    167406.43 0.0063178468 0.0066974001 -0.00045742332 
  339000    2.6404637  0.023487492    28372.625    167804.81 0.0040057919 0.0068468316 0.0037715578 
  340000    2.6522863   0.02341507    28372.625    168118.55 0.0058361544 0.0082102844 0.0015087905 
  341000     2.640413  0.023437545    28372.625     168476.9 0.0048941624   0.01008952 0.00088826142 
  342000    2.6556032  0.023946153    28372.625    168777.35 0.0025056156 0.0082368328 0.00033611908 
  343000    2.6352398  0.023891194    28372.625    169016.93 -0.0002566568 0.0066834007 0.00082730582 
  344000    2.6400465  0.023285797    28372.625     169315.4 0.0009124361 0.0073581615 -0.00010907659 
  345000    2.6427403  0.023727813    28372.625    169657.28 -0.0027590656  0.007702694 0.00031281069 
  346000    2.6463969  0.023389696    28372.625    170139.26 0.0010488726 0.0071173003 0.00066988731 
  347000    2.6356462  0.024556449    28372.625    170621.02 -0.0072838924 0.0034824818 -0.0055220564 
  348000    2.6385127  0.024323687    28372.625    171025.75 -0.0022869183 0.0052906451 -0.0037615504 
  349000    2.6390263  0.023611891    28372.625    171492.49 -0.00098195577  0.004794433 -0.0019457513 
  350000    2.6371987  0.024420463    28372.625    171946.85 -0.00044835686 0.0064005033 -0.00012325094 
  351000    2.6313791  0.023138069    28372.625    172452.57 -0.0023838497 0.0057108447 6.2803109e-05 
  352000    2.6310367  0.024073229    28372.625    172995.77 -0.0012747381 0.0061325067 0.00049734231 
  353000    2.6332667   0.02396325    28372.625    173524.36 0.00049485935 0.0073577222 0.0023874017 
  354000    2.6390005  0.023760387    28372.625    174076.37 -0.00040392498 0.0085950838 0.0028251848 
  355000    2.6623139  0.023311826    28372.625    174545.04 0.00059284189 0.0075224846 0.0025753095 
  356000     2.644048    0.0234462    28372.625    174943.08 0.0053073094 0.0061917244 0.0056573081 
  357000    2.6496496  0.023062076    28372.625    175359.32 0.0034021208 0.0028962913 0.0066972878 
  358000    2.6482308  0.023382134    28372.625     175717.9 0.0026719672 0.00091490031 0.0063281743 
  359000    2.6451125   0.02389742    28372.625    176002.09 0.0024380981 0.0023310801 0.0074796833 
  360000    2.6466796  0.023157019    28372.625     176241.8  0.002524034 0.00086378964 0.0039856532 
  361000    2.6450941  0.023144767    28372.625    176528.76 0.0014050296 0.0019567511 0.0056196318 
  362000    2.6506636  0.023041236    28372.625    176735.75 -0.0018727425  0.001279842 0.0050720502 
  363000    2.6469928  0.023100745    28372.625    176938.16  0.001074899 0.0018218433 0.0029894649 
  364000    2.6410954  0.023441669    28372.625    177191.27 0.00032014982  0.002058367 -0.0017786975 
  365000    2.6376478  0.023911352    28372.625    177497.37 -0.0028300103 0.0025769124 -0.00093474992 
  366000     2.632735   0.02540508    28372.625    177874.15 -0.0033799976 -0.00097546769 -0.00015529654 
  367000    2.6460705  0.023302111    28372.625    178365.02 -0.0030378785 0.0023599908 0.0025338502 
  368000    2.6325698  0.023782036    28372.625    178767.78 -0.0034371426 -0.0030445793 0.0017040199 
  369000      2.62745  0.024203776    28372.625    179098.25 -0.0020486012 0.0056229766 0.0025562024 
  370000    2.6438145  0.023476856    28372.625    179488.14 0.0022410146 0.00027333318 0.0021750429 
  371000     2.652139  0.023989858    28372.625    179843.09 0.0025250723 -0.00077815564 0.0049252343 
  372000    2.6399859  0.023609023    28372.625    180283.09  0.002317669 0.0010568687 0.0022942192 
  373000    2.6346759  0.024420553    28372.625    180672.79 -7.6236715e-05 0.0012521713 0.0027506581 
  374000    2.6446763  0.024142783    28372.625    181060.27 0.00049386945 0.00025985652 0.00055607325 
  375000    2.6471255   0.02311196    28372.625    181447.93 -0.0023153557 0.0031351281 3.6280774e-05 
  376000    2.6365959  0.024009917    28372.625    181794.05 -0.0042574892 0.0057624808 -0.00032514332 
  377000    2.6452813  0.023406418    28372.625    182170.24 -0.0046326882 0.0059706422 -0.00077061187 
  378000    2.6388447  0.023975056    28372.625    182556.71 -0.0052369954 0.0033815335 -1.4632792e-05 
  379000    2.6358111  0.023740822    28372.625     182792.1 -0.0046102933  0.008762883 -0.0024255853 
  380000    2.6476387  0.023492716    28372.625    183134.95 -0.0064308806 0.0084177945 -0.0014334134 
  381000    2.6226946   0.02486332    28372.625    183639.32 -0.0095426831 0.0072213148 -0.0048119785 
  382000    2.6464251  0.024417028    28372.625    184126.87 -0.0095034617 0.0065085194 -0.0019624297 
  383000    2.6457403  0.023269425    28372.625    184604.32 -0.013685693 0.0093839614 -0.006184565 
  384000    2.6436674  0.024112222    28372.625    185060.55 -0.012234559 0.0059116343 -0.0085432382 
  385000    2.6419784  0.023222257    28372.625    185390.78 -0.015312044 0.0091844509 -0.0092730159 
  386000    2.6418862  0.023407636    28372.625    185826.38 -0.014733563  0.010669939 -0.0074884373 
  387000    2.6446701  0.023508135    28372.625     186220.3 -0.0076030752 0.0056083817 -0.0043932187 
  388000    2.6362344  0.023623966    28372.625    186631.21 -0.012796121 0.0058211081 -0.0049459153 
  389000    2.6447338  0.023625015    28372.625    186987.84  -0.01308309 0.0078025341 -0.0065844416 
  390000    2.6392672  0.023686238    28372.625    187461.95 -0.012691196 0.0085418207 -0.0077157863 
  391000    2.6442543  0.023212421    28372.625    188206.42 -0.010449325 0.0052563614 -0.0065312347 
  392000    2.6568044  0.023107307    28372.625    189017.03 -0.0070852356 0.0077221399 -0.0048619094 
  393000     2.654065  0.023578766    28372.625    189650.33 -0.0058749825 0.0086313059 -0.003282723 
  394000    2.6467513  0.023634366    28372.625    190276.43 -0.007559197 0.0090051501 -0.0026654225 
  395000    2.6443301  0.023155793    28372.625    190795.71 -0.010318488 0.0097321911 -0.0039413438 
  396000    2.6291438  0.024525844    28372.625    191374.95 -0.0037064415  0.015855167 -0.0037631455 
  397000    2.6513693  0.023779702    28372.625    191934.53 -0.0098652168  0.012421224 -0.0016617388 
  398000    2.6453272  0.024466791    28372.625    192424.22 -0.011906015 0.0058225909 -0.0048883478 
  399000    2.6399391  0.023324726    28372.625     193019.1 -0.012472311  0.010209292 -0.00017182292 
  400000    2.6469523  0.023755988    28372.625    193633.36 -0.011515775 0.0099865025 -0.00016010228 
  401000    2.6469541   0.02367536    28372.625    194155.11 -0.013318833  0.008711583 -0.00052413547 
  402000    2.6358827  0.023987356    28372.625    194823.56 -0.013468123 0.0085404005 -0.0052985604 
  403000    2.6393637  0.023743155    28372.625    195499.98 -0.0062129655  0.013120901 -0.0028504878 
  404000    2.6511035  0.023409454    28372.625    196124.56 -0.004726872  0.010045195 -0.0044902389 
  405000    2.6465246  0.023590638    28372.625    196753.21 -0.0058295685 0.0082177267 -0.003911717 
  406000    2.6345618  0.023279982    28372.625    197333.94 -0.0063511814 0.0056723846 -0.0048484065 
  407000    2.6335971  0.024441533    28372.625    197832.46 -0.006605845   0.01214039 -0.0077530442 
  408000    2.6552505  0.023485254    28372.625    198173.54 -0.0040694905 0.0087911141 -0.0046728492 
  409000    2.6381102  0.024079945    28372.625    198434.05 -0.0078906595 0.0060948552 -0.005647449 
  410000    2.6511706  0.023318933    28372.625    198811.45 -0.0073839827 0.0016418384 -0.0024000437 
  411000    2.6340056   0.02491977    28372.625    199174.15 -0.0031685438 -0.0018712674 -0.0032301946 
  412000    2.6470691  0.023531901    28372.625    199502.99 -0.0046797783 0.00067390328 -0.0039228897 
  413000    2.6375872  0.023899815    28372.625    199927.44 -0.004502852 0.00031254228 -0.0014800092 
  414000    2.6501406  0.023364923    28372.625     200457.1 -0.0028845336 0.0026257463 0.0025941994 
  415000    2.6505113  0.023984928    28372.625    200986.04 -0.0049129777 0.0021895615  0.002558948 
  416000    2.6564601  0.023279211    28372.625     201666.7 -0.0040506031 0.0027659759 0.00017861988 
  417000     2.632677  0.023585874    28372.625    202226.33 -0.00054808679 0.0044785189 -0.0012749795 
  418000    2.6412556  0.023372329    28372.625    202677.12  0.002446235 0.0047331003 -0.0019623231 
  419000    2.6423075  0.023253142    28372.625    203161.42 -0.00033292705 -0.0010267094 -0.0054613633 
  420000    2.6378449  0.023627486    28372.625     203570.4  0.001156063 -0.00075462526 -0.0058880854 
  421000    2.6428863  0.023775017    28372.625    204019.48 0.0011505478 0.0018172539 -0.0055922051 
  422000    2.6431054  0.024405043    28372.625    204454.91 0.0031457678 -0.00026834049 -0.0018394972 
  423000     2.651435   0.02348865    28372.625    204893.63 0.0038610995 0.0057640407 -0.00073032899 
  424000    2.6472413  0.023550275    28372.625    205373.35 0.0032802996 0.0045857671 -0.0015774272 
  425000    2.6541201  0.023704585    28372.625    205989.46 0.00054090274 0.0013554397 -0.00010997902 
  426000    2.6506889  0.024017083    28372.625    206651.68 0.0018763935 -0.0027530322 0.0024466314 
  427000    2.6421478  0.024975263    28372.625    207231.66 -0.0009000282 -0.0057766799 -0.0010813664 
  428000    2.6260708  0.025591303    28372.625    207791.03 0.0014182418 -0.0049709553 0.00038132213 
  429000    2.6469849  0.024187809    28372.625    208289.31 -0.00031391922 -0.0025154308 -0.0012271656 
  430000    2.6511922  0.023539415    28372.625    208802.34 -0.0014304494 -0.0012722273 -0.0040761472 
  431000    2.6488991  0.023157377    28372.625    209160.61 -0.0032154196 -0.00016462308 -0.0013379959 
  432000    2.6451181  0.024293697    28372.625    209464.37 -0.0025149968 0.00039830195 0.0008308219 
  433000    2.6393986  0.023147837    28372.625    209856.08 -0.0021784715 0.0014839136 -1.1405899e-05 
  434000     2.648636  0.023114142    28372.625    210067.69 -0.00092837508 -0.003316315 -0.00053187021 
  435000    2.6381581  0.023161009    28372.625    210281.14 0.0036074523 -0.0025832244 0.00081482991 
  436000    2.6464721  0.023667238    28372.625     210444.8 0.0021339576 -0.0060615407 -8.975912e-05 
  437000    2.6477824  0.023016498    28372.625    210692.18   0.00654006 -0.0046619263 -0.0008768125 
  438000    2.6333634  0.023164368    28372.625    211099.65 0.0046749179 -0.0047752323 -0.0025024115 
  439000    2.6539439  0.023815246    28372.625    211441.42 0.0039473016 -0.0029248311 -0.0034636907 
  440000    2.6588562  0.023539385    28372.625    211857.54 0.0044188004 -0.0011915596 -0.00035712982 
  441000    2.6438585  0.023092536    28372.625    212321.34 0.0079623694 -0.0024101307 -0.00010913687 
  442000    2.6374926   0.02340317    28372.625    212804.81 0.0093034183 -0.0027989199 0.0011135012 
  443000    2.6333298  0.023318893    28372.625    213341.97  0.009369136 0.00057221024 0.0014921667 
  444000     2.645364  0.023149006    28372.625    213875.67 0.0099279084  0.001593235 -0.00069116904 
  445000    2.6435508  0.024122375    28372.625    214417.35 0.0099790446 0.0008636048 0.00072986148 
  446000    2.6537656  0.023583787    28372.625    214957.59 0.0078318416 -0.0015813994 -0.0012283382 
  447000    2.6452555  0.023215131    28372.625    215513.87 0.0078378732  0.000316975 -0.0045944926 
  448000    2.6522803  0.023489579    28372.625    216115.61 0.0086003422 0.0020684484 -0.0013387763 
  449000    2.6422889  0.023643984    28372.625    216745.59 0.0077443445 -0.00021221119 -0.0025479384 
  450000    2.6389736  0.023889812    28372.625    217321.78 0.0079272544 0.0025989101 -0.0035117275 
  451000    2.6426059  0.023396728    28372.625    217852.59 0.0030722104 0.0013038845 -0.0052969963 
  452000    2.6456807  0.023963396    28372.625    218474.55 0.0019842089 0.0020198852 -0.00089992264 
  453000    2.6564797  0.023813066    28372.625     219146.3 0.00064889446 0.0060626145 -0.00081011186 
  454000    2.6285584  0.024545439    28372.625    219705.14 0.0053023201  0.006624833  0.002761895 
  455000    2.6424182  0.023417693    28372.625    220269.99 0.00065966929  0.004356051 0.0011030667 
  456000    2.6232672  0.024491509    28372.625    220786.31 0.0023196231 0.0035288881 0.0011276038 
  457000    2.6354895   0.02372383    28372.625    221256.69 0.00061106064 0.0021188176 -0.00057176321 
  458000    2.6435949    0.0234052    28372.625    221779.11 0.0034292456 0.0031960027 -0.00023432694 
  459000    2.6428422  0.023325343    28372.625    222462.47  0.004028291 0.0021113056 0.0011084792 
  460000    2.6518756  0.023118448    28372.625    223159.02 0.0053817109 0.00069626267 0.0014440152 
  461000    2.6452756  0.023379086    28372.625    223903.84 -0.0015103887 0.00078006246 -0.00074311951 
  462000    2.6454952  0.023148943    28372.625    224550.82 0.0010941213 0.0032409192 -0.0037619284 
  463000    2.6535366  0.023856203    28372.625    225146.19 -0.00049823666 0.0016176161 -0.0030632555 
  464000    2.6468919  0.023374548    28372.625    225750.38 0.00040954184 0.0030058098 -0.0049346259 
  465000    2.6452338  0.023452946    28372.625    226339.54 0.00071135807 0.0020558171 -0.0037253514 
  466000    2.6398184  0.023726264    28372.625    226794.91 0.0012841572 0.0008528125 -0.0060863594 
  467000    2.6389152  0.023450578    28372.625    227252.59 0.00023321292 0.0007051809 -0.0085967935 
  468000    2.6481549  0.023097515    28372.625    227688.15 -0.0022897431 0.0031580405 -0.0088998165 
  469000    2.6286207   0.02342839    28372.625    228025.07 -0.0017805561 0.00080685625 -0.006659189 
  470000    2.6383348  0.023179431    28372.625    228259.11 -0.001022323 -0.00068220986 -0.0091638462 
  471000    2.6403295  0.024055584    28372.625    228489.04 -0.0018091625 0.00010971259 -0.0099226603 
  472000    2.6485543  0.023929132    28372.625    228707.35 0.00030164251 -0.0020078891 -0.0074982891 
  473000    2.6446725  0.023390317    28372.625    228928.98 -0.0013912857 -0.0019123284 -0.0073899508 
  474000    2.6452281  0.023586907    28372.625    229249.23 0.00077785434    0.0007032 -0.0070401191 
  475000    2.6490717  0.023619867    28372.625    229575.14 -0.0030075423 0.0016788066 -0.0095563873 
  476000    2.6437492  0.024413108    28372.625    229822.17 -0.0033491299 0.0029340292 -0.0087265294 
  477000    2.6394257   0.02350539    28372.625    230139.94 -0.0057558213 -0.00046506731 -0.0050822788 
  478000     2.639432  0.023914457    28372.625    230431.13 -0.0043440585 -0.0034299172 -0.0036960446 
  479000    2.6368986  0.023390666    28372.625    230726.89 -0.0033570307 -0.0052356827 -0.0068219862 
  480000    2.6256334  0.023278976    28372.625    231100.28 -0.0031007283 -0.0043925422 -0.0070053121 
  481000    2.6433494  0.023279371    28372.625    231516.29 -0.0055492369 -0.0063150023 -0.0046036535 
  482000    2.6451553  0.023200376    28372.625    231969.58 -0.0048794555 -0.0037224524 -0.0070150931 
  483000    2.6360591  0.023129904    28372.625    232374.34 -0.0073548951 -0.0029702721 -0.0048033183 
  484000    2.6476158  0.023314432    28372.625    232859.64 -0.0060514687 -0.0019693199 -0.0046594791 
  485000    2.6474606   0.02381123    28372.625    233336.63 -0.0029825558 0.0020700998 -0.0070242933 
  486000    2.6175543  0.024243493    28372.625    233664.86 -0.0033671311 0.0013096476 -0.0046041602 
  487000    2.6393493  0.024390027    28372.625    233872.14 -0.0029880832 -0.0015676001 -0.0039655792 
  488000    2.6499522   0.02391791    28372.625     234091.3 -0.0029996152 -0.00056914014 -0.0057851301 
  489000    2.6570972  0.023146039    28372.625    234296.58 -0.0061169769 -0.0039945709 -0.0027440936 
  490000    2.6446733  0.023864248    28372.625    234523.26 -0.0034529382 -0.0032446787 -0.0031996228 
  491000     2.616229  0.025438816    28372.625    234668.84 -0.0037410659 -0.0061649516 0.00051639169 
  492000    2.6342156  0.023808403    28372.625    234923.22 -0.0032681691 -0.0050780153 -0.0014410566 
  493000    2.6451804  0.023665124    28372.625    235164.41 0.0011699792 -0.0078674574 -0.00033958621 
  494000    2.6522112  0.023173784    28372.625    235282.36 0.0035816639 -0.0079452563 -0.00095128849 
  495000    2.6289503  0.024393086    28372.625    235438.34 -0.00093042224 -0.0071855967 -0.00078976523 
  496000    2.6549463  0.024068689    28372.625    235673.79 0.00016144028 -0.0068086198 -0.0028785659 
  497000    2.6413097  0.023542217    28372.625    236061.48 -0.00070966841 -0.0092883118 0.00092213681 
  498000    2.6508807  0.023253647    28372.625    236413.64 -0.0004121435 -0.011090246 0.0018640544 
  499000    2.6490369  0.023060103    28372.625    236895.73 -0.0032973176 -0.0085921424 0.0017623223 
  500000     2.651554  0.023324636    28372.625    237255.14 -0.00043037572 -0.0066004352 -0.00038884076 
  501000     2.646308  0.023174116    28372.625    237353.61 0.0024937857 -0.0022368738 -0.00022242441 
  502000    2.6538487  0.023933191    28372.625    237407.07 0.0018802443 0.0017067038 0.0013488154 
  503000    2.6174892  0.024534411    28372.625     237585.3 -0.001046961 0.00090061413 -0.0020464662 
  504000    2.6269303  0.024195428    28372.625    237826.04 -0.00046746443 -0.00037574055 -0.0009968352 
  505000    2.6460696  0.023835731    28372.625    238123.62 -0.003326337 -0.00036259682 0.0037900655 
  506000    2.6411803  0.023566371    28372.625    238554.17 -0.0035247432 0.00041219853 0.00091964219 
  507000    2.6430029  0.024022809    28372.625    238931.18 -0.0057845546 0.00072229152 0.00013278048 
  508000    2.6377141   0.02349133    28372.625    239218.24 -0.0031439021 -0.00059681944 0.0020124918 
  509000    2.6279763   0.02476207    28372.625    239484.06 -0.0014747912  0.001387304 -0.0047255409 
  510000    2.6478629   0.02417424    28372.625     239807.2 -0.0011344243 -0.00086897128 0.0029869533 
  511000    2.6477536  0.023813987    28372.625     240169.3 -0.00046340781 -0.0022802803  0.001413248 
  512000    2.6414643  0.024193453    28372.625    240590.64 -0.00048009202 0.00043699985  0.004092207 
  513000    2.6539729  0.023433841    28372.625    241074.98 -0.0010712397 -0.00010040585 0.0040623674 
  514000    2.6417433  0.023180736    28372.625    241624.54 0.00025168349 -0.00086510299 0.0051653152 
  515000    2.6406027  0.023063095    28372.625    242201.33 0.00069469372 0.00052150228 0.0031816999 
  516000    2.6407327  0.024134219    28372.625    242800.78 0.00046124988 0.0055006571  0.003159666 
  517000     2.647979  0.023093159    28372.625    243418.83 -6.6368985e-05 0.0049858443 0.00058463908 
  518000      2.64277  0.023673304    28372.625    244067.54 -0.0042578467 0.0042127186 -0.002009232 
  519000    2.6358835  0.023820665    28372.625    244778.79 -0.00091437438 0.0043485695 -1.9653372e-05 
  520000    2.6515507   0.02359033    28372.625    245425.75 -0.00082346192 0.0045180754 0.00048322416 
  521000    2.6348558  0.023416221    28372.625    246040.15 -0.0047710843 0.0028344443 0.00055451984 
  522000    2.6388893  0.023713211    28372.625    246636.08 -0.0033619122 0.0098143702 -0.0016045364 
  523000    2.6389014   0.02425416    28372.625    247272.66 -0.0010864851 0.0027001124 -0.0015519324 
  524000     2.645679  0.023810567    28372.625    247981.01 0.0019975554 0.0031276446 -0.0016569417 
  525000    2.6469795  0.023619699    28372.625    248718.87 0.0044878777 0.0038473052 0.0011765135 
  526000    2.6410913  0.023384484    28372.625    249308.54 0.0030499735 0.0032897902 -0.00042849472 
  527000    2.6335644  0.023164817    28372.625    249987.65  0.001968893   0.00261113 0.00073958905 
  528000    2.6380499  0.023807252    28372.625    250657.71 -0.0031084527 0.0050810156 -0.0025124695 
  529000    2.6432356  0.023139504    28372.625    251287.69 0.0036526681 0.0029444209 0.00070888799 
  530000    2.6626987  0.023149698    28372.625    251981.43 0.0060499001 0.0021617997 0.0014100287 
  531000    2.6329037  0.023912495    28372.625    252627.22 0.0054110255 0.0010285977 0.0024298373 
  532000    2.6437639    0.0235698    28372.625    253199.12 0.0045213635 0.00096292732 -0.001430968 
  533000    2.6528976  0.023368082    28372.625     253831.7 0.0037507534 0.0006133584 -0.0018261144 
  534000     2.645866  0.023629803    28372.625    254543.02 0.0049557803 0.0020443586 -0.00088916157 
  535000    2.6461913  0.023096311    28372.625    255269.94 0.0044791752 0.0031966315 -0.0010899385 
  536000    2.6352662  0.024236123    28372.625    255847.71 0.0013813599 0.0026212198 -0.003528408 
  537000    2.6439276  0.023740999    28372.625    256387.77 0.0047807075 -0.00023732653 0.0010184075 
  538000    2.6339375  0.024036475    28372.625    256770.61  0.002195434 0.0034890733  0.001649594 
  539000    2.6338579  0.024261103    28372.625    257148.24  0.001677554 0.0024182733 0.0014855489 
  540000    2.6434039  0.023300021    28372.625       257593 -0.00020185224 0.0020731357 0.0033173755 
  541000    2.6435267  0.023412734    28372.625    258034.56 -5.6742696e-06  0.003521279 0.0040412609 
  542000    2.6449124  0.024313904    28372.625    258587.24 0.00077910782 0.0018806783 0.0037942389 
  543000    2.6383026  0.023527369    28372.625     258976.3 0.0031760045 0.0049740871 0.0047064227 
  544000    2.6446796  0.023521578    28372.625    259353.57 -0.0010217366 0.0053550064 0.0035281792 
  545000    2.6355315   0.02488534    28372.625    259728.24 -0.00023139948 0.0017865354 0.0018624722 
  546000     2.640053   0.02416178    28372.625    260054.51 0.0035519033 0.0036431533 -8.8184423e-05 
  547000    2.6423304  0.023731854    28372.625    260573.33 0.0026950617 -0.00046185286 -0.00035585788 
  548000    2.6452104   0.02326915    28372.625    261197.68 0.0031826428 0.0015531924 0.0010261018 
  549000    2.6425326  0.023739626    28372.625    261847.08 0.0054517001 0.0032757594 0.0023897905 
  550000    2.6468562  0.023967378    28372.625    262416.31 0.0056118012 0.0038407606  0.000804756 
  551000    2.6274293  0.024856293    28372.625    262945.91  0.011261346  0.006276819 0.00055799986 
  552000    2.6398605  0.023680052    28372.625    263451.92 0.0043230739 0.0014402823 0.00011297094 
  553000    2.6490952   0.02315132    28372.625    264065.06 0.0033359658 0.0022518874 -0.002170206 
  554000    2.6488225  0.023513843    28372.625    264732.85 0.0022890931 0.0029401774 -0.0035196439 
  555000    2.6525386  0.023768557    28372.625    265279.79 0.0010052464 0.0040947256 -0.0056262746 
  556000    2.6427243  0.023491154    28372.625     265702.7 0.0050226102 0.0030021707 0.00045996897 
  557000    2.6386832  0.024339327    28372.625    266145.25 0.0019569988 0.0014821674 -0.0017092651 
  558000    2.6415835  0.023554588    28372.625    266678.67 0.00031625243 0.00090471949 -0.0056506971 
  559000    2.6484941  0.023857422    28372.625    267116.02 0.00039810503 -0.0011383938 -0.0050596142 
  560000    2.6589097  0.023259279    28372.625    267492.66 0.00070072429 -0.0012641498 -0.0040679317 
  561000    2.6490465  0.023270452    28372.625    267873.65 0.0018181119 -0.00051826215 -0.0060135602 
  562000    2.6515623  0.023710709    28372.625    268422.58 -0.0010179974 0.0011089568 -0.010058298 
  563000    2.6489399  0.023424892    28372.625    269069.04 0.00037433524 -0.0014263727 -0.010139011 
  564000    2.6484134   0.02354709    28372.625    269778.04 0.0033509024 -0.0028985042 -0.0083906066 
  565000    2.6472661   0.02392606    28372.625    270502.36 0.0071891499 -0.0011919176 -0.0096347682 
  566000    2.6450706  0.024339877    28372.625    271263.85 0.0064471298 0.00034776077 -0.008370023 
  567000    2.6391665  0.023588268    28372.625    272007.68 0.0018370658 -0.001156549 -0.0081905324 
  568000    2.6373345  0.023246431    28372.625    272741.74 0.0018581138 -0.0034447838 -0.0057949278 
  569000     2.642995  0.023474641    28372.625    273498.08 0.0047788614 -0.0053517205 -0.0052083899 
  570000    2.6489071  0.023222672    28372.625    274318.24 0.0067364076 -0.0038634258 -0.0063711103 
  571000    2.6397471  0.023512427    28372.625    275145.08 0.0058111606 -0.0045286238 -0.0097954344 
  572000    2.6418114  0.023514083    28372.625    275855.31 0.0054530791 -0.0010245302 -0.0085692258 
  573000    2.6384132  0.024072299    28372.625    276546.66 0.0049121417 0.0024285552 -0.011918914 
  574000    2.6558061   0.02379445    28372.625    277290.32 0.0024555363 0.0055049952 -0.010113255 
  575000    2.6390855  0.024166133    28372.625    277952.63 0.0026781318 0.0057083762 -0.0049633064 
  576000    2.6356084  0.023766397    28372.625    278736.82 0.0019450065 0.0030820384 -0.0053872203 
  577000    2.6540652  0.023460465    28372.625    279732.96 -0.00039100069 0.0019797619 -0.0053323995 
  578000    2.6629785  0.023717863    28372.625    280800.83 0.0013505768 0.00078733299 -0.0053578649 
  579000    2.6422917  0.023453077    28372.625    281750.41 0.00035154298 0.0014991382  -0.00523738 
  580000    2.6342661  0.023412587    28372.625    282644.67 -0.00066473751  0.002687999 -0.0045851731 
  581000    2.6427471  0.023460012    28372.625    283398.88 -0.0023059972 2.2296893e-05 -0.0043431743 
  582000    2.6496635  0.023090636    28372.625    284177.17 -0.0040211269  0.002619298 -0.0046437013 
  583000    2.6453157  0.023359448    28372.625    284965.75 -0.0033814445 0.0026159523 -0.0029874337 
  584000    2.6507792  0.023368486    28372.625    285871.85 -0.0007389508 0.0021414005 -0.0027935579 
  585000    2.6575557  0.023331953    28372.625    286856.01 -0.00087115407 0.00088104389 -0.0031254855 
  586000    2.6354006  0.023449292    28372.625    287805.77 -0.0035500227 -0.00085632292 -0.0033602599 
  587000    2.6407232  0.024146911    28372.625    288598.49 -0.0050272834 0.0059440998 -0.0029416408 
  588000    2.6384828  0.023272529    28372.625    289225.44 -0.003275381 0.0049069143 -0.002830571 
  589000    2.6432933  0.024041731    28372.625    289841.28 -0.0063247108 0.0051600429 -0.0015778082 
  590000    2.6479862  0.023266004    28372.625     290355.1 -0.0050244949 0.0057316565 -0.0015716626 
  591000    2.6565018  0.023656799    28372.625    290879.15 -0.0072354765 0.0011610265 -0.0011219941 
  592000    2.6332209   0.02336419    28372.625    291403.75 -0.0052772176 0.0032134691 0.00041950554 
  593000    2.6457409  0.023497656    28372.625    291990.46 -0.0044133837 0.00076919356 -0.0032561245 
  594000    2.6406016  0.023765481    28372.625    292571.03 -0.0059045722 -0.0044155284 -0.0053387387 
  595000    2.6508829  0.023762545    28372.625    293089.91 -0.0043457946 -0.0024521497 -0.0045691954 
  596000    2.6552505  0.023300762    28372.625    293570.48 -0.0011981947 -0.001442648 -0.0029249719 
  597000    2.6431932  0.024416706    28372.625    294003.49 -0.0031692724 -0.00016502036 -0.0011381999 
  598000     2.641669  0.023838906    28372.625    294306.13 -0.00037731461 -0.00025994373 -0.0062545544 
  599000    2.6342061  0.023592872    28372.625    294600.41 0.0030004254 0.0018804134 -0.0041621711 
  600000    2.6537878  0.023635851    28372.625    294953.42 0.00091406919 0.0041518384 -0.0052285528 
  601000     2.652811  0.023673162    28372.625     295407.6 -0.00021239375 0.0056704871 -0.0041228194 
  602000    2.6628573  0.023545726    28372.625    295880.27 0.00070165259 0.0046972148 -0.0016456212 
  603000    2.6360012  0.024828376    28372.625    296349.98 -0.0013760152 0.0054322431 0.0037926373 
  604000     2.655008  0.023523842    28372.625    296855.72 -0.0011448483 0.0033031937 -0.0037939074 
  605000    2.6551926  0.023729295    28372.625    297452.86 -0.0056658051 0.0084567285 -0.0011500626 
  606000    2.6459073  0.023415032    28372.625    297740.77 -0.0017047103 0.0077759051 -0.0011838848 
  607000    2.6416955  0.024100408    28372.625    298008.02 -0.0021987957 0.0098226513 -0.0024487439 
  608000    2.6401435  0.023750815    28372.625    298348.08 -0.0036233826 0.0081531413 -0.002229058 
  609000    2.6452486  0.023764519    28372.625    298666.38 -0.001658691 0.0098904421 -0.00051014638 
  610000    2.6548089  0.023412056    28372.625    299068.99 -0.0032856571 0.0072986813 -0.0030874598 
  611000    2.6489741  0.023762146    28372.625    299580.43 -0.0023564482 0.0070894127 -0.0072374955 
  612000    2.6430187  0.024547824    28372.625    300230.04 -0.0033519545 0.0068428119 -0.0026709206 
  613000    2.6493905  0.023582726    28372.625    300816.13 6.4719669e-05 0.0055058426 -0.0018533551 
  614000      2.65865  0.023137574    28372.625    301474.17 0.00014053718 0.0015554618 -0.0027689939 
  615000    2.6591163  0.024574219    28372.625     302094.3 0.0019433492 -0.0011985561 -0.0012918013 
  616000    2.6579888  0.024199442    28372.625    302500.28 0.00041850523 0.00068653473 -0.0082271054 
  617000    2.6451844  0.023486762    28372.625    302869.07 0.00038700948 -0.0010436975 -0.011481377 
  618000    2.6384605  0.023397294    28372.625    303239.63 0.0020971691 0.0018953727 -0.010425552 
  619000    2.6518461  0.023861593    28372.625    303733.98 0.0041455315  0.001572044  -0.00723544 
  620000    2.6427763  0.024448655    28372.625    304320.65 0.0035357726 -0.0018655843 -0.0040031581 
  621000     2.636739  0.023287153    28372.625    304940.82 0.0030159176 -0.0010821007 -0.0051594083 
  622000    2.6473515  0.023403139    28372.625    305603.61 0.0055887459 0.00037222186 -0.0098993439 
  623000    2.6517195  0.023488656    28372.625    306311.36 0.0050140763 -0.00072845557 -0.0078010002 
  624000    2.6481987  0.023120008    28372.625    307088.34 0.0040201766 -0.0013936347 -0.0072208624 
  625000    2.6470403  0.023673123    28372.625    307725.04 0.0027268756 0.00041109777 -0.0036310543 
  626000    2.6316964  0.024497833    28372.625    308389.09 0.0020306927 -0.0027943099 -0.0054615378 
  627000    2.6638861  0.023198541    28372.625       308990  0.003152853 -0.0022127252 -0.005628605 
  628000    2.6393172  0.024419024    28372.625    309477.93 0.0031449841 -0.001771447 -0.0062152972 
  629000    2.6410812   0.02354505    28372.625    309849.85 0.0049320975 -0.0016089348 -0.0037243205 
  630000    2.6453685  0.024420393    28372.625    310203.24  0.007408127 -0.0005158356 -0.0031406748 
  631000    2.6448081  0.023600917    28372.625    310569.64  0.005362777 0.00077088832 0.00016242384 
  632000    2.6560437  0.023612785    28372.625    310912.14  0.006406298 0.00084559268 -0.00020939546 
  633000    2.6383465  0.023788907    28372.625    311277.77  0.005722265 0.0025218051 -0.0015875754 
  634000    2.6513583   0.02309353    28372.625    311639.29  0.003527973 0.00029476514 -0.0014903699 
  635000    2.6403889  0.023804355    28372.625    311908.19 0.0057281264 -0.00038183121 -0.00055499776 
  636000    2.6377439   0.02451276    28372.625    312086.84 0.0064647502 0.00097389548 -0.0024468977 
  637000    2.6473395  0.023425024    28372.625    312356.26 0.0047591259 -0.00041025556 -0.001547999 
  638000    2.6431854  0.023576417    28372.625    312651.59 0.0041387675 0.00049917694 -0.0016354026 
  639000    2.6345344  0.023811384    28372.625     312952.6 -0.0011427746 -0.0025504776 -0.0010638117 
  640000    2.6459054  0.023999939    28372.625    313242.32 5.9756272e-05 -0.00044155934 0.0018651369 
  641000    2.6530142  0.023421209    28372.625    313348.19 0.00050872875 -0.0021042382 0.0018190044 
  642000    2.6500078  0.023801272    28372.625    313564.63 -0.0015307898 -0.00018201079 0.0039150802 
  643000    2.6261635  0.024109501    28372.625    313942.62 -0.0069239091 0.0007105759 0.0051807414 
  644000     2.631479  0.024061734    28372.625    314388.35 -0.0066181299 -0.00038551358 0.0046723387 
  645000    2.6511308  0.023513468    28372.625    314871.65 -0.0056977918 0.00033260462 0.0032450313 
  646000    2.6391848  0.023469874    28372.625    315355.44 -0.0030445488 -0.00056206315 0.0034225615 
  647000    2.6416496  0.023232626    28372.625    316000.62 -0.0045671463 -0.0010594978 -0.002020339 
  648000    2.6344989  0.025072252    28372.625    316696.33 -0.0036780377 -0.0051963384 0.0075140166 
  649000    2.6439095  0.023234181    28372.625     317269.5 -0.0018064687 0.0014562786 0.0040935797 
  650000    2.6355898  0.023616766    28372.625    317766.69 -0.0015472971 0.0015383939 0.0044255669 
  651000    2.6455668  0.023186988    28372.625    318168.59 -0.0027712185 0.0015497264 0.0019406066 
  652000    2.6492386  0.023531892    28372.625    318722.37 -0.0030735276 0.0035769901 0.0027643313 
  653000    2.6490122  0.023328062    28372.625    319212.31 -0.0022607825 0.0046810426 -0.00016214188 
  654000    2.6401364  0.023589925    28372.625    319604.25 -0.0020304548 0.0035716259 -0.0011887711 
  655000     2.635857  0.023889804    28372.625    319951.47 -0.0022048774 0.0068239006 -0.00019554326 
  656000    2.6412229  0.023080158    28372.625    320302.02 -0.0056008736 0.0028952946 0.00031145765 
  657000    2.6303571  0.023891704    28372.625    320744.37 -0.0035852092 0.00081062778 -0.0001062725 
  658000    2.6665572  0.023394377    28372.625    321271.74 -0.0027237596 -0.0021533798 -0.00083514211 
  659000    2.6405507    0.0232232    28372.625    321734.98 -0.0011964563 -0.0034434949 -0.0017283206 
  660000    2.6427804  0.023776033    28372.625    322178.12 -0.0012596175 -0.0028550429 -0.00077914253 
  661000    2.6567787  0.023198234    28372.625    322589.43 -0.0018579087 -0.0058266961 -0.0005521765 
  662000    2.6325725  0.024069523    28372.625    322987.76 -0.00028741671  -0.00596944 -0.001463091 
  663000    2.6449981  0.024109859    28372.625    323421.76 -0.003001324 -0.002821732 -0.0015940063 
  664000    2.6394496   0.02435673    28372.625    323820.52 -0.0042604926 -0.0012243856 -0.00027433587 
  665000     2.622966  0.025404887    28372.625    324171.97 -0.0010312848 -0.0019132162 -0.0013146579 
  666000    2.6545313  0.023344899    28372.625    324482.68 -0.0027136743 -0.0020211205 -0.00017495863 
  667000     2.650647  0.023372261    28372.625    324833.18 -0.0038431365 -0.0024237471 0.0011971146 
  668000    2.6424075  0.023536114    28372.625    325099.42 -0.0024595856 -0.0024268067  0.001015322 
  669000    2.6518542  0.023747373    28372.625    325352.14 -0.00021813546 -0.0032276907 0.00051441096 
  670000    2.6485149  0.023539813    28372.625    325473.23 -0.0028969569 -0.0023699977 0.0012671683 
  671000      2.65466  0.023649379    28372.625    325677.14 -0.0039014532 -0.0027694401 0.0021745926 
  672000    2.6565136   0.02389343    28372.625    325968.31 -0.0017165067 -0.0050742349 0.0020288802 
  673000    2.6292694  0.024001373    28372.625    326247.11 0.00073087356 -0.0071875191 0.0035487493 
  674000    2.6136998  0.025884976    28372.625    326611.59 -0.0033304342 -0.0044871338 -0.0047824261 
  675000    2.5854111  0.026859078    28372.625    326962.87 0.0047687574 -0.013427585 0.0014493822 
  676000     2.649765  0.023425203    28372.625     327224.9 0.0029976705 -0.0059041784 0.0023023556 
  677000    2.6427447  0.023528673    28372.625    327618.76 0.0026178982 -0.0061545296 0.0013988002 
  678000    2.6517391   0.02450708    28372.625    327983.64 -0.00050168335 -0.0075960531 0.0026704112 
  679000    2.6429047  0.025020585    28372.625    328275.36 -0.0044156684 -0.0069008734 0.00093860162 
  680000     2.626388  0.023880586    28372.625    328552.65 0.0033418481 -0.0061297646 0.0088202693 
  681000    2.6514349  0.023601563    28372.625    328794.49 0.0012242978 -0.0062322621 0.0028772258 
  682000    2.6423763  0.023306604    28372.625    329172.52 0.0016497035 -0.0054131665 0.0030437266 
  683000    2.6486077  0.023116882    28372.625    329502.86  0.002555504   -0.0044383 0.0036266778 
  684000     2.641109  0.023280232    28372.625    329752.45 0.0063137754 -0.0055298531 0.0023670197 
  685000    2.6486005  0.023471996    28372.625    329956.33 0.0049799338 -0.0018387429 0.0024038387 
  686000    2.6465823  0.023200266    28372.625     330104.6 0.0041945082 -0.00086540208 0.0016424997 
  687000    2.6479368  0.023136222    28372.625    330247.51 0.0052403493 -0.00064061691 0.00069128995 
  688000    2.6440036   0.02379535    28372.625    330693.68 0.0048202666 0.0025418414 -0.0011696075 
  689000    2.6549824  0.023219756    28372.625    331226.23 0.0017332938 0.0026285188 0.0025155299 
  690000    2.6402314  0.023281992    28372.625    331842.45 0.0044368092  0.003634974 0.0015940275 
  691000    2.6657443  0.023554779    28372.625    332372.68 -0.00039049386 0.0039939015  0.003042409 
  692000    2.6334197  0.024792738    28372.625    332922.04 -0.0022020949 0.0025063278 0.0034290769 
  693000    2.6421914   0.02363611    28372.625    333695.28 -0.0029389507 0.0058025419 0.0074644177 
  694000    2.6556065  0.023342995    28372.625    334410.81 -0.0025290107 0.0035344899 0.0080117298 
  695000     2.641403   0.02360234    28372.625    335230.57 -0.0027765528  0.004558138 0.0054371966 
  696000    2.6558488  0.023592053    28372.625     336034.3 -0.0006410098 0.0051382025 0.0029912062 
  697000    2.6446115  0.023286266    28372.625    336973.06 -0.0027723113 0.0071146176 0.0007264954 
  698000    2.6360878   0.02477474    28372.625    337851.57 -3.9592225e-05   0.01461621 0.0040500967 
  699000    2.6413689  0.023064293    28372.625    338570.73 -0.0018314074 0.0078658679 0.0017102576 
  700000    2.6370458  0.024306784    28372.625    339257.52 0.00012716237 0.0074035649 0.0024829318 
  701000    2.6406059  0.023678737    28372.625     339920.3 -0.001260241  0.006951515 0.0003808527 
  702000    2.6526368  0.023894402    28372.625    340654.63 -0.0033486438 0.0070606715 -0.0018930956 
  703000    2.6544708  0.023463638    28372.625    341409.44 -0.00062128245 0.0083559965 -0.0029251549 
  704000    2.6491743  0.023731702    28372.625    342007.84 -0.0017359206 0.0090214751 -0.0064204867 
  705000    2.6431136  0.023381908    28372.625    342433.47 0.0012055365 0.0047105777 -0.007109495 
  706000    2.6421193  0.023117843    28372.625    342845.67 -0.0011516799 0.0032883985 -0.0048678866 
  707000    2.6483047   0.02319358    28372.625    343220.31 -0.0028034695 0.0053857234 -0.0025225535 
  708000    2.6583968  0.023230093    28372.625    343769.22 0.0017477352 0.0049889914  -0.00103395 
  709000    2.6488371  0.023456163    28372.625    344336.26 0.0028325561 0.0063759219 -2.5605809e-05 
  710000    2.6389418  0.023636364    28372.625    344842.83 0.0037003501 0.0065902676 -0.0021540883 
  711000    2.6528486  0.023974719    28372.625    345208.83 0.0031167557 0.0064752732 0.00092398068 
  712000    2.6313003  0.023776763    28372.625    345471.04 0.0067073028 0.0035295628 0.0025536182 
  713000    2.6531667  0.023137732    28372.625     345844.9 0.0051659784  0.002759271  0.006243435 
  714000     2.638772  0.023384081    28372.625    346408.19 0.0059445074 0.0046122635 0.0059701305 
  715000    2.6528984  0.023749137    28372.625    347048.71 0.0056328183 0.0049212928 0.0062311793 
  716000    2.6481213  0.023397346    28372.625     347649.8 0.0066035788 0.0041883603 0.0049146583 
  717000    2.6528679  0.023854823    28372.625    348140.55 0.0074299716 0.0021778933 0.0041944456 
  718000    2.6497002  0.023497557    28372.625     348639.9 0.0089570896 0.0040596965 0.0039125731 
  719000    2.6333213  0.024393225    28372.625     349141.7 0.0066417796 0.0049526484  0.001969696 
  720000    2.6526762  0.023800731    28372.625    349636.47 0.0067017991 0.0058608969 0.0009089266 
  721000    2.6534514  0.023570381    28372.625    350104.49  0.006485201 0.0078685657 0.00070703725 
  722000    2.6432846  0.024141145    28372.625    350524.87   0.00754635 0.0073546982 -0.00092320628 
  723000    2.6443868  0.023550942    28372.625    350994.64 0.0044920218 0.0038676255 -0.0012427433 
  724000    2.6483138  0.023242147    28372.625    351367.59 0.0033399321 0.0037852423 0.00018794602 
  725000    2.6368843  0.024525663    28372.625    351847.31 0.0059568923 -0.00050797823 -0.0049662931 
  726000    2.6384169  0.023196596    28372.625    352294.09 0.0046261194 0.0033257272 -0.0039074725 
  727000     2.642506  0.023535637    28372.625    352914.65 0.0062061516 0.0049025933 -0.0055350999 
  728000    2.6418899  0.024546352    28372.625    353617.92 0.0050259379 0.0019011805 -0.0042270225 
  729000    2.6711676  0.023518324    28372.625    354467.22 0.0045999453 0.0037138436 -0.0026498785 
  730000    2.6345614  0.024822339    28372.625    355301.82 0.0026882106 -0.0026739275 -0.0031959289 
  731000    2.6460272  0.023451087    28372.625    355996.91 0.0026145469 -0.0004701586 -0.0057182585 
  732000    2.6425219  0.023581122    28372.625    356636.95  0.000890128 -0.0019927474 -0.0053047861 
  733000    2.6397361  0.023082128    28372.625    357123.48 -0.0028230902 -0.0019741713 -0.0047354555 
  734000    2.6461169  0.023286698    28372.625    357577.57 -0.0044780525 -0.0023194568 -0.001917764 
  735000    2.6486853  0.024511754    28372.625    358031.55 -0.005242445 -0.0040373151 -0.00064773332 
  736000    2.6370369  0.023943754    28372.625    358526.35 -0.00097048649 -0.0015023931 0.00013281544 
  737000    2.6387464  0.023265992    28372.625    359077.49 -0.00030662378 -0.0027192867 0.0012971375 
  738000    2.6439025  0.023976322    28372.625    359545.76 -0.00040039366 0.00088587964 -0.00025503162 
  739000     2.642599  0.023124151    28372.625    359959.43 -0.0021564357 0.00011517045 0.0011567631 
  740000    2.6425077  0.023039075    28372.625    360560.95 -0.0034121531  0.001451856 0.00062647294 
  741000    2.6476799  0.023156321    28372.625    361208.19 -0.0025974327 0.0012304517 0.0022778141 
  742000    2.6482329  0.023250048    28372.625    361853.77 -0.0017436279 2.7640158e-05 0.0028275966 
  743000    2.6310721  0.024832674    28372.625    362479.82 -0.0049858905 -0.0040331456  0.007631829 
  744000    2.6187659  0.025234786    28372.625    363087.07 -0.0011644315 0.0011226813 0.0038994302 
  745000     2.633915  0.024029411    28372.625    363767.05 -0.0041722553 0.0020581331 0.0026042433 
  746000    2.6534142  0.023603744    28372.625    364502.02 -0.0046986598 -0.00089503134 0.0040777197 
  747000    2.6493102  0.023759687    28372.625    365189.78 -0.0057958563 -0.0014984909 0.0033506642 
  748000    2.6337141  0.024401435    28372.625    365858.24 -0.0011518914 -0.0040474148 0.0031087233 
  749000    2.6439016  0.023771212    28372.625    366316.87 3.5208368e-05 -0.004157439 0.00054693604 
  750000    2.6459352  0.023107863    28372.625     366807.4 0.0033856158 -0.0073585281  0.001139465 
  751000    2.6439541  0.024108447    28372.625     367353.6 0.0014106319 -0.0056171842 0.0012068744 
  752000    2.6419574  0.023657805    28372.625     367636.8 -0.00084359079 -0.0065746074 0.0018809231 
  753000    2.6548162  0.023963405    28372.625    367829.54 -0.0029768052 -0.0068134344 -0.0010955929 
  754000    2.6505889  0.023589555    28372.625    368076.44 0.00033572739 -0.0051306072 0.00015982019 
  755000    2.6438176   0.02365136    28372.625    368503.55 -0.0018052647 -0.0041729994 -0.0026656793 
  756000    2.6450408  0.023192601    28372.625    369007.54 -0.0059957008 -0.0058400193 -0.0015330991 
  757000    2.6481556  0.023879463    28372.625     369473.1 -0.0089915985 -0.0072542204 -0.0023272147 
  758000    2.6468484  0.024016824    28372.625    369933.06 -0.0046791098 -0.0069157124 -0.0047235856 
  759000    2.6449904  0.023438363    28372.625    370406.14 -0.0079773901 -0.0080667353 -0.0023015004 
  760000    2.6449801  0.023543095    28372.625    370802.07 -0.0085478337 -0.0071035142 -0.0041126164 
  761000    2.6368355  0.023245043    28372.625    370985.13 -0.010149959 -0.0057937344 -0.0071425268 
  762000    2.6447683   0.02299782    28372.625    371082.26 -0.0097911374 -0.0044496565 -0.0046361495 
  763000    2.6423244  0.023359289    28372.625    371232.46 -0.0074518906 -0.0051357093 -0.002414816 
  764000    2.6455643  0.023471445    28372.625    371276.83 -0.0056713461 -0.0035651712 -0.001536433 
[...]
 1844000     2.640477  0.023182412    28372.625    868348.55 0.0011003676 0.0041816603 0.0021846707 
 1845000    2.6409072  0.024078377    28372.625    868617.68 -0.0014872232 -0.001525688 -0.0027855968 
 1846000    2.6427422  0.023482487    28372.625    869000.17 -0.0010079215  0.002472211 -0.0026148046 
 1847000    2.6519218  0.023480311    28372.625    869472.67 0.0021130541 0.0017728332 -0.0013122864 
 1848000    2.6475264  0.024225389    28372.625    869966.61 0.0041181087 0.0019637898 0.0021244068 
 1849000    2.6441833  0.024820748    28372.625    870474.15  0.003743735 -0.0009203339 0.0010054701 
 1850000    2.6356238  0.023226448    28372.625    870575.64 0.0031904576 0.00099836405 0.0022785742 
 1851000    2.6474158  0.024123481    28372.625    870562.32 0.0018116727 0.0028477103 -0.0041282056 
 1852000    2.6269842   0.02396234    28372.625    870608.77 0.0038293261 0.0076038418 0.0016305314 
 1853000     2.634308  0.023209164    28372.625    870690.56 0.0031964155 0.0059218232 -0.0030968264 
 1854000    2.6348047  0.023227603    28372.625    870733.09  0.002907028 0.0062848142 -0.0038566225 
 1855000    2.6407962  0.024764144    28372.625     870628.2 0.0035757502 0.0083653047 -0.0033478963 
 1856000    2.6320578  0.023955218    28372.625    870443.28 0.0034340345 0.0033083149  0.000124028 
 1857000    2.6484227   0.02369379    28372.625    870359.76 5.8017493e-05 0.0042984017 0.00046286752 
 1858000    2.6350666  0.023262303    28372.625    870215.18 -0.0024116532 0.0012246207 -0.0013130992 
 1859000    2.6311083  0.023853919    28372.625    869979.52 -0.0033067715 -8.953636e-06 -0.0041784418 
 1860000    2.6416816  0.023367889    28372.625    869901.89 -0.0046144649 -0.0016607835 -0.0068517288 
 1861000    2.6101328  0.025502708    28372.625    869967.38 -0.0075507274 0.00049304255  -0.00624223 
 1862000    2.6451446  0.023571375    28372.625    870200.98 -0.0040447388 -0.00079768949 -0.0062680645 
 1863000    2.6481223  0.023319341    28372.625    870533.54 -0.0069410996 0.00090435909 -0.0058174355 
 1864000    2.6358199  0.023335797    28372.625    870923.72 -0.0018942294 -0.0020019319 -0.00019951371 
 1865000    2.6415365  0.023382974    28372.625    871155.96 -0.0022569121 0.00063630322 -0.001764956 
 1866000    2.6340359  0.023676555    28372.625    871461.35 -0.0031498995 0.00030911244 -0.0029813824 
 1867000     2.638243  0.023418098    28372.625    871700.78 -0.0023973386 0.0034678278 -0.005815021 
 1868000    2.6334004  0.024285507    28372.625    871790.87 -0.00082398728 0.0050982657 -0.0016746872 
 1869000    2.6477135  0.023482616    28372.625    871751.97 -0.0014651691 0.0042587191 5.6351174e-05 
 1870000    2.6443842  0.023716519    28372.625    871609.19 7.1160276e-05 -2.9123811e-05 -0.0012615891 
 1871000    2.6318481  0.023115057    28372.625    871324.19 0.0013081907 -0.0019363625 -0.0007006612 
 1872000    2.6405182  0.024320026    28372.625    871014.08 0.0032488118 -0.0015701091  0.001152713 
 1873000    2.6489229  0.023444447    28372.625    870791.24 0.00010671287 -0.0044710908 -0.00062938807 
 1874000    2.6478751  0.023913257    28372.625    870555.46  0.001207651 -0.004995215 -4.1805791e-05 
 1875000    2.6479007  0.024108619    28372.625    870351.54  0.002773569 -0.0045375447 0.00094093614 
 1876000    2.6535391  0.023079747    28372.625    870554.21 0.0022128376 -0.0096637479 -0.0010318181 
 1877000    2.6554076  0.024418862    28372.625    870844.92 0.0025648107 -0.010700207 -0.00079810228 
 1878000    2.6587784  0.023657731    28372.625       871371 0.0034513674 -0.0095202852 -0.0042023099 
 1879000    2.6511078   0.02324875    28372.625    872169.18 0.0046672236 -0.010913411 -0.0060537908 
 1880000     2.685712  0.022966909    28372.625    872979.06 0.0046210763 -0.012204631 -0.0023767386 
 1881000    2.6463939  0.023496565    28372.625    873867.89  0.004752883 -0.011963669 -0.003898563 
 1882000    2.6333015  0.024537398    28372.625    874733.48 0.0056157779 -0.010862578 -0.0064607657 
 1883000    2.6542805  0.025872814    28372.625    875641.77 0.0072878254 -0.0079451903 -0.0053078319 
 1884000    2.6594477  0.023516085    28372.625    876301.21  0.006378114 -0.0030680797 -0.0059944443 
 1885000    2.6450019  0.024333207    28372.625    876854.26 0.0095451967 -0.0026279609 -0.001817251 
 1886000    2.6729401  0.024587327    28372.625    877125.56 0.0030171179 -0.0030607278 -0.0097661981 
 1887000    2.6459393  0.023487007    28372.625    877427.82 0.0012223093 -0.0050018464 -0.0061990658 
 1888000    2.6179623  0.024529468    28372.625    877881.73 0.0035544254 -0.0010554285 -0.0012124377 
 1889000    2.6420239      0.02341    28372.625    878319.56 -0.00025602522 -0.0026624703 -0.00033529894 
 1890000    2.6365877  0.023790533    28372.625    878643.19 -0.00082447685 -0.0056778809 0.0023751708 
 1891000    2.6415819  0.023269456    28372.625    879012.37 9.4729112e-05 -0.0062575886 0.0022150946 
 1892000    2.6248688  0.024008299    28372.625    879310.83 0.0044971644 -0.0041486291 0.00090374843 
 1893000    2.6429694  0.023138119    28372.625    879849.46 0.0031846697 -0.0019329731  0.001554409 
 1894000    2.6307276  0.024184842    28372.625    880293.29 0.0012684415 0.0010770398 0.0011055316 
 1895000    2.6403993   0.02308051    28372.625    880626.74 0.00049337635 -0.0020249605 0.0023187952 
 1896000    2.6294287  0.025084975    28372.625    880917.97 0.0018502943 -0.0024756414 0.0027385401 
 1897000    2.6349795  0.023368508    28372.625     880761.7 0.00055658086 -0.0041740318 -0.00071930493 
 1898000    2.6308282  0.023557043    28372.625    880789.09 0.00039643085 -0.0039957549 -0.0020707259 
 1899000    2.6286961  0.024879855    28372.625    880589.78  0.004854717 -0.0010929875 -0.001113374 
 1900000    2.6462535  0.023142768    28372.625    880423.72 0.00054821587 -0.0025993381 0.00012846864 
 1901000    2.6444987  0.023108007    28372.625    880186.39 0.0016548934 -0.00041148417 -0.0026908018 
 1902000    2.6474248  0.024208568    28372.625    879919.14 -0.00031303145 0.0007235121 -0.0022047997 
 1903000    2.6325222  0.024623284    28372.625    880101.21 0.0038397588 -0.0018243316 -0.0001080378 
 1904000    2.6424333  0.023284447    28372.625    880350.51 0.00060115492 -0.001213483 -0.0014792473 
 1905000    2.6438107   0.02357492    28372.625    880756.94 0.00028171574 -0.002780343 -0.0019105346 
 1906000    2.6098581  0.025839497    28372.625    881405.53 -0.00066217288 -0.0026533343 0.00031182109 
 1907000    2.6345443  0.024093965    28372.625    881829.45 -0.0034698305 -0.0019157526 0.00063112762 
 1908000    2.6497148   0.02366131    28372.625    882290.06 -0.00020066469 -0.0012304749 -0.0023715638 
 1909000     2.638948  0.024418073    28372.625    882790.08 0.0040173617 -0.00073088355 -0.0054215937 
 1910000     2.647575  0.023178361    28372.625    883184.32 -0.0015785575 -0.0023867491 -0.0026727711 
 1911000    2.6445583  0.023398584    28372.625    883695.66 0.00025530089 -0.0007130264 -0.0027125406 
 1912000    2.6538565  0.023830395    28372.625    884158.52 0.0010247742 0.00020717628 -0.0039141909 
 1913000    2.6589271  0.024071356    28372.625    884513.73 -0.0013044162 -0.00044286647 -0.0033303998 
 1914000    2.6478561  0.023178219    28372.625    885054.09 -0.0012949872 -0.0030010482 -0.0010392457 
 1915000    2.6421954  0.023258869    28372.625    885394.43 0.00065899949 -0.0048408459 0.00085420582 
 1916000    2.6494511  0.023801573    28372.625    885745.12 0.00084118939 -0.0039219896 0.0021025637 
 1917000    2.6417354  0.023412967    28372.625    886041.16 0.0027236812 -0.0067945643 0.0022697034 
 1918000    2.6555045  0.023291209    28372.625    886426.91 -0.00099278898 -0.0059629949 0.0020110288 
 1919000    2.6379254  0.023749916    28372.625    886612.82 -0.0010982972 -0.0010463261 0.0019524747 
 1920000     2.650525  0.023630353    28372.625     887072.1 -0.0042907303 -0.004430004 0.0020723089 
 1921000    2.6479487  0.023773667    28372.625    887617.61 -0.0021458322 -0.0031089722 0.0029276069 
 1922000    2.6429798  0.023475412    28372.625    888242.43 0.00041442692 -0.0038263195 0.0053111477 
 1923000     2.643817   0.02356169    28372.625    888599.89    0.0012189 -0.0038496753 0.0055311341 
 1924000    2.6451137  0.023586542    28372.625    888649.53 0.0017220984 -0.0019805428  0.005825521 
 1925000    2.6331119  0.023752338    28372.625    888950.33 0.0020077214 -0.0011449488 0.0071389045 
 1926000    2.6506127  0.023200716    28372.625    889168.33 0.0018006303 -0.00074605959 0.0060809457 
 1927000    2.6344589  0.024191666    28372.625    889442.51 0.0021077886 0.00024505711 0.0062770383 
 1928000    2.6337057  0.025441001    28372.625    889948.07 0.0019555557 -0.0045488127 0.0036517061 
 1929000    2.6358037  0.023624266    28372.625    890377.73  0.002047662 -0.0036900166 0.00048458986 
 1930000    2.6262799  0.024349749    28372.625    890754.03 0.0047631221 -0.0024712184 0.0030616213 
 1931000    2.6501652  0.023541153    28372.625    891190.27 0.0018594906 -0.0019826568 0.0013083912 
 1932000    2.6432445  0.023902111    28372.625    891793.06 0.00076040058 0.0016983554  0.003152185 
 1933000    2.6436608  0.023598766    28372.625    892543.63 0.0031725372 0.0023768006 0.0044086235 
 1934000    2.6358093  0.023753656    28372.625    893078.26 -0.0010887135 -0.0029495028 -0.0010331695 
 1935000    2.6475711  0.023322276    28372.625     893438.6 -0.00031914357 -0.0050923605 -0.00053230742 
 1936000    2.6330137  0.024068033    28372.625    893824.21 -0.0023032997 -0.0048496697 0.00014416842 
 1937000     2.620292  0.025606707    28372.625    894161.85 0.00035778227 -0.0068134739 -0.0018849844 
 1938000    2.6339042  0.024502755    28372.625    894592.43  0.002571297 -0.0038425689 -0.0013437114 
 1939000    2.6441397  0.024238326    28372.625    894590.87 -0.0023676893 -0.0010987961  -0.00228132 
 1940000    2.6447697  0.023576507    28372.625     894460.5 -0.00050950001 -0.0012917203 -0.0010093976 
 1941000    2.6439759  0.024072511    28372.625    894203.92 0.00032054575 -0.0022769271 -0.0033451763 
 1942000    2.6378687  0.023360945    28372.625    894186.09 -0.0037321299 -0.0016633947 -0.0019553342 
 1943000     2.642043  0.023253776    28372.625    894353.05 -0.00052199101 0.00079857255 0.0011749725 
 1944000    2.6423274  0.023891569    28372.625    894592.08 -0.00099641885 -0.0020521074 0.0023635884 
 1945000    2.6324289  0.023789559    28372.625    895063.83 -0.0069470796 -0.0013628293 0.0014113541 
 1946000     2.635054  0.023610151    28372.625    895809.28 -0.0028755586 0.00026163533 -0.0010178994 
 1947000     2.645103  0.023239533    28372.625    896427.38 -0.0044333069 -0.0027729728 -0.00065446568 
 1948000    2.6460456  0.024089064    28372.625    896952.84 -0.0062866421 -0.00099258091 -0.00067902505 
 1949000    2.6288816  0.024784341    28372.625    897290.24 0.00055674791 0.0029590948 -0.0028352857 
 1950000    2.6440049   0.02344302    28372.625    897629.84 -0.006035461 -0.00033047654 0.0010535747 
 1951000    2.6383374  0.023568632    28372.625    897944.56 -0.007922814 -0.0039506966 0.0055488943 
 1952000    2.6325561  0.024165316    28372.625     898393.4 -0.010173054 0.0033810157 0.0051670809 
 1953000    2.6442262  0.023859713    28372.625    899069.07 -0.0073494378  0.003988495 0.0027261068 
 1954000    2.6429599  0.023494679    28372.625    899522.62 -0.007143499 0.0032767418 0.00041924082 
 1955000    2.6488669   0.02352346    28372.625    900125.03 -0.0080019918 0.0031038641 -0.00098345511 
 1956000    2.6474334  0.024496846    28372.625    900551.51 -0.0066228059 0.00089649529 -0.0021659956 
 1957000    2.6414241  0.023222843    28372.625    901200.71 -0.0033217182 0.0052380146 0.00062974863 
 1958000     2.641477  0.024454344    28372.625    901790.26 0.0026745599 0.0015175167 0.0042502224 
 1959000    2.6419159  0.023352525    28372.625    902354.38 0.0016559181 0.00066166522 0.0040524231 
 1960000    2.6501307  0.023574045    28372.625    903083.95 0.0019934672 0.0031972531 0.0057565783 
 1961000    2.6485334  0.023650604    28372.625    903952.88 -0.00063164499 -0.00014351795 0.0048036987 
 1962000    2.6421713  0.024378649    28372.625    904857.62   0.00246577 -0.0014762963 0.0057377573 
 1963000      2.63243  0.024387768    28372.625     905669.9 -0.0042198869 0.00041642981 0.0040661368 
 1964000    2.6520586  0.024052421    28372.625    906516.71 -0.0022535776 -0.00038580784 0.0025406009 
 1965000    2.6286272  0.024473345    28372.625    907297.94 -0.0046740687 -0.0031629604 0.0047143503 
 1966000    2.6561041  0.023728797    28372.625    908282.83 -0.0037507137 -0.0016005678 0.0015618101 
 1967000    2.6446749  0.023325811    28372.625     909072.3 -0.0015685728 -0.0023357551 0.0022261402 
 1968000    2.6466786  0.024846777    28372.625    909784.37  -0.00359816 -0.0013855249 0.00020849623 
 1969000    2.6459159  0.023186987    28372.625    910372.18 -0.0060861179 -0.00038820864 0.0018288502 
 1970000    2.6518507  0.023236283    28372.625    910719.27 -0.0049806343 0.0006625773 0.00042191188 
 1971000    2.6499968  0.023377835    28372.625    911083.78 -0.0038432138 0.00025916249 -0.00063396136 
 1972000    2.6510145  0.023617917    28372.625    911500.49 -0.0024390455  0.001539569 -0.0014755438 
 1973000    2.6478012  0.023576914    28372.625    911779.31 -0.0057901705 0.0022540277 0.0013823862 
 1974000    2.6488993  0.023168249    28372.625    912268.06 -0.0048346724 0.0010104112 -0.00052335594 
 1975000    2.6593181  0.023771394    28372.625    913011.39 -0.0042288299 0.0015758659 0.00093009247 
 1976000    2.6409902  0.023266705    28372.625    913755.83 -0.00077987797 0.0015532002 0.00010767363 
 1977000    2.6378619  0.023646427    28372.625    914525.05 0.0002625725  0.003263823 0.00099337663 
 1978000    2.6410476  0.024205663    28372.625    915092.17 -0.00036106316 0.00042098331 0.0014749795 
 1979000    2.6548808  0.023316728    28372.625    915822.86 -0.0028064676 0.0027556147 0.00076693764 
 1980000    2.6540161  0.023009019    28372.625    916513.66 -0.0018660772  0.002082463 0.0026805163 
 1981000    2.6390092  0.023325018    28372.625     917147.6 -0.0031932911 0.0038355067 0.0036781513 
 1982000    2.6421252   0.02310168    28372.625    917582.77 -0.0021118103 0.0036363067 0.0036486601 
 1983000    2.6450509   0.02382797    28372.625    917905.56 -0.0023536067 0.0017667826 0.0022248349 
 1984000    2.6359546   0.02426041    28372.625    918558.86 -0.0032174242 -0.00070174606 0.0022837357 
 1985000    2.6392306  0.023533538    28372.625    919142.81 -0.0017204869 -0.00021015905   0.00263193 
 1986000    2.6377196  0.024393135    28372.625    919408.52 -0.0049559668 2.3775647e-05 0.0021848289 
 1987000    2.6328638    0.0235967    28372.625    919585.87 -0.0087452645 0.0016362208 0.0018668787 
 1988000    2.6404125  0.023422961    28372.625    919946.43 -0.004890525 0.00095590412 -0.0018111841 
 1989000    2.6354514  0.024600475    28372.625    920165.55 -0.0069279015 -0.0028606218 -0.0016433441 
 1990000    2.6315097  0.024289053    28372.625    920242.68 -0.0077959834 -0.00071991851 -0.00038406388 
 1991000    2.6414016  0.023197907    28372.625    920436.28 -0.0065878146 0.0018598671 -0.0016476827 
 1992000    2.6442708  0.023531978    28372.625    920681.97 -0.0059734978 0.0037424995 -0.0054571961 
 1993000     2.641475   0.02463623    28372.625     920990.1 -0.0035253991 0.0006944897 -0.0054934705 
 1994000     2.637773  0.023929303    28372.625     921084.5 -0.0049241365 0.0042358577 -0.0068804905 
 1995000    2.6471719   0.02364932    28372.625    921339.46 -0.0013053868 0.00068849783 -0.0045249105 
 1996000    2.6357067  0.023579061    28372.625    921584.68 -0.0032591925 0.0018899101 -0.0029787304 
 1997000    2.6301239  0.024394905    28372.625    921927.53 -0.0021236823 -0.0021057213 -0.0073483588 
 1998000    2.6383222  0.023615001    28372.625     922216.6 -0.0030572655 -0.0004372897 -0.0057133709 
 1999000    2.6468569  0.023995633    28372.625    922490.33 -0.0044981013 -0.0015980583 -0.0063155522 
 2000000    2.6300267  0.024219266    28372.625    922969.66 -0.0046531476 0.00060200353 -0.0064254478 
Loop time of 742.499 on 1 procs for 2000000 steps with 256 atoms

Pair  time (%) = 10.5631 (1.42264)
Neigh time (%) = 12.4556 (1.67752)
Comm  time (%) = 5.17144 (0.696491)
Outpt time (%) = 0.185208 (0.0249438)
Other time (%) = 714.124 (96.1784)

Nlocal:    256 ave 256 max 256 min
Histogram: 1 0 0 0 0 0 0 0 0 0
Nghost:    152 ave 152 max 152 min
Histogram: 1 0 0 0 0 0 0 0 0 0
Neighs:    114 ave 114 max 114 min
Histogram: 1 0 0 0 0 0 0 0 0 0

Total # of neighbors = 114
Ave neighs/atom = 0.445312
Neighbor list builds = 157314
Dangerous builds = 2730
#	run			10000
	unfix			1
	uncompute		myKE
	uncompute		myPE
	uncompute		myStress
	uncompute		flux
	uncompute		myDis
	unfix			JJ

	next seed
	next iseed
jump lmp.in.gk loop_seed
variable iseed loop 10
variable seed index 11111 22222 33333 44444 55555 66666 77777 88888 99999 11112
clear

# Lennard-Jones
#Prepare Geometry---------------------------------------------------------------
units			lj
atom_style		atomic
read_data		lmp.in.x0.1
  orthogonal box = (0 0 0) to (30.5 30.5 30.5)
  1 by 1 by 1 MPI processor grid
  256 atoms
#Initialize Structure-----------------------------------------------------------
#mass           	1  1.0
#group         		Ar type = 1
#LJ Potentials------------------------------------------------------------------
pair_style		lj/cut 2.5
pair_coeff		* * 1.0 1.0
pair_modify          	shift yes
#pair_modify   	tail no

#Variables----------------------------------------------------------------------
#LJ Parameters
variable    	kB 		equal 1.3806504e-23 	# [J/K] Boltzmann
variable	sigma_Ar 	equal 3.4e-10 		# m
variable	eps_Ar		equal 1.67e-21		# J
variable	mass_Ar		equal 6.63e-26		# kg
variable	tau_Ar		equal 2.1423e-12	# s
#thermo Parameters
variable    	T_melt 		equal 300*(${kB}/${eps_Ar})
variable    	T_melt 		equal 300*(1.3806504000000001236e-23/${eps_Ar})
variable    	T_melt 		equal 300*(1.3806504000000001236e-23/1.6699999999999999942e-21)
variable	T_0K		equal 0.00001
variable	T_2_5K		equal 2.5*(${kB}/${eps_Ar})
variable	T_2_5K		equal 2.5*(1.3806504000000001236e-23/${eps_Ar})
variable	T_2_5K		equal 2.5*(1.3806504000000001236e-23/1.6699999999999999942e-21)
variable	T_5K		equal 5*(${kB}/${eps_Ar})
variable	T_5K		equal 5*(1.3806504000000001236e-23/${eps_Ar})
variable	T_5K		equal 5*(1.3806504000000001236e-23/1.6699999999999999942e-21)
variable	T_10K		equal 10*(${kB}/${eps_Ar})
variable	T_10K		equal 10*(1.3806504000000001236e-23/${eps_Ar})
variable	T_10K		equal 10*(1.3806504000000001236e-23/1.6699999999999999942e-21)
variable	T_15K		equal 15*(${kB}/${eps_Ar})
variable	T_15K		equal 15*(1.3806504000000001236e-23/${eps_Ar})
variable	T_15K		equal 15*(1.3806504000000001236e-23/1.6699999999999999942e-21)
variable	T_320K		equal 320*(${kB}/${eps_Ar})
variable	T_320K		equal 320*(1.3806504000000001236e-23/${eps_Ar})
variable	T_320K		equal 320*(1.3806504000000001236e-23/1.6699999999999999942e-21)

variable   	dt 		equal 0.002
variable	quench_rate	equal 1.0
variable	quench_length 	equal 10000
#kappa parameters
variable    	p 		equal 200000 		# correlation length
variable    	s 		equal 5  		# sample interval
variable    	d 		equal $p*$s 		# dump interval
variable    	d 		equal 200000*$s 		
variable    	d 		equal 200000*5 		

#SED parameters
variable	w_step		equal 2^5
variable	w_total		equal 2^16
variable	t_total		equal 2^18
variable	num_ffts	equal ${t_total}/${w_total}
variable	num_ffts	equal 262144/${w_total}
variable	num_ffts	equal 262144/65536

#------------ RUN TEMP ---------------------------------------------------------------------
variable 	T_run 		equal ${T_320K}
variable 	T_run 		equal 2.6455576526946114058
#------------ RUN TEMP ---------------------------------------------------------------------

log 	log_heat_${iseed}.lammps
log 	log_heat_8.lammps
