	reset_timestep  	0
	fix 			1 all nve
	compute   		myKE all ke/atom
	compute   		myPE all pe/atom
	compute   		myStress all stress/atom virial
	compute   		flux all heat/flux myKE myPE myStress
	variable  		Jx equal c_flux[1]/vol
	variable  		Jy equal c_flux[2]/vol
	variable  		Jz equal c_flux[3]/vol
	fix       		JJ all ave/correlate $s $p $d c_flux[1] c_flux[2] c_flux[3] type auto file J0Jt_${iseed}.dat ave running
	fix       		JJ all ave/correlate 5 $p $d c_flux[1] c_flux[2] c_flux[3] type auto file J0Jt_${iseed}.dat ave running
	fix       		JJ all ave/correlate 5 200000 $d c_flux[1] c_flux[2] c_flux[3] type auto file J0Jt_${iseed}.dat ave running
	fix       		JJ all ave/correlate 5 200000 1000000 c_flux[1] c_flux[2] c_flux[3] type auto file J0Jt_${iseed}.dat ave running
	fix       		JJ all ave/correlate 5 200000 1000000 c_flux[1] c_flux[2] c_flux[3] type auto file J0Jt_8.dat ave running
#	fix       		JJ all ave/correlate $s $p $d c_flux[1] c_flux[2] c_flux[3] type auto ave running
#	dump			JJ all custom 1000000 J0Jt.dat f_JJ[3] f_JJ[4] f_JJ[5]
	compute 		myDis all msd
	thermo_style 		custom step temp press vol c_myDis[4] v_Jx v_Jy v_Jz
	thermo			1000
	timestep		${dt}
	timestep		0.0020000000000000000416
	run			2000000
Memory usage per processor = 3.08201 Mbytes
Step Temp Press Volume myDis[4] Jx Jy Jz 
       0    2.6437313  0.023801759    28372.625            0 -0.0039014238 -0.0019250102 -0.0031391939 
    1000    2.6452856  0.023164048    28372.625    29.379233 -0.0060831858 -0.0018862197 -0.0016153681 
    2000    2.6485163  0.023300491    28372.625    110.71302 -0.0025539495 -0.00098413187 0.00082341414 
    3000     2.656165  0.023203194    28372.625    242.99122 -0.0027863659 -0.00090187004 0.0019544232 
    4000    2.6481765  0.023995271    28372.625    413.76777 -0.0040141619 0.00092541796 0.0028896421 
    5000    2.6327244  0.023972198    28372.625    619.22581 -0.0043315648 0.0029593642 0.0025621138 
    6000    2.6367136  0.023978324    28372.625    863.52527 -0.0059417893 0.0021794395 0.0029990134 
    7000    2.6368786  0.023183833    28372.625    1125.9861 -0.003955533 0.0025983542 0.0088545691 
    8000    2.6269746   0.02447418    28372.625    1409.3685 -0.0020532947 0.0013094408 0.0084131946 
    9000    2.6339675  0.023924626    28372.625    1721.8733  -0.00122462 0.00025409841 0.0072509189 
   10000    2.6444412  0.023752649    28372.625    2054.7075 0.0024283973  0.002777548 0.0069287793 
   11000    2.6350223  0.024322535    28372.625    2388.9058 -0.00023201289 0.0015226392 0.0073451837 
   12000    2.6427075  0.023152356    28372.625    2743.0704 -0.0006695323 -0.001058973 0.0061109579 
   13000    2.6525987  0.023427977    28372.625    3130.2722 -0.00033335846 -0.0017703915 0.0064575958 
   14000    2.6432681   0.02367622    28372.625    3532.6343 0.00020578549 -0.0051378243 0.0053192371 
   15000    2.6454857  0.023156081    28372.625    3933.1423 -0.00086351038 -0.0035734695 0.0043103773 
   16000    2.6518331  0.023471828    28372.625    4325.8663 -0.0019904165 -0.0060426583 0.0001840108 
   17000    2.6511816  0.023118714    28372.625    4730.4069 -0.00047692266 -0.0033597318 0.00043065051 
   18000    2.6352648  0.023157337    28372.625    5128.4795 -0.00064000794 -0.0049807289 0.0027295397 
   19000    2.6429835  0.023340417    28372.625    5497.7232  0.001300782 -0.0051749497 0.0058367562 
   20000    2.6371346  0.023530966    28372.625    5890.9812 0.0034394832 -0.0064929781 0.0050866301 
   21000    2.6415782  0.024258229    28372.625    6316.9382 0.0059523291 -0.0051843342 0.0028448862 
   22000    2.6323724  0.024604468    28372.625    6761.6728   0.00469977   -0.0048203 0.00092560013 
   23000    2.6377921      0.02396    28372.625    7199.9675 0.0046427239 -0.0072751328 0.0017519988 
   24000    2.6477968  0.023835961    28372.625    7648.0741 0.0035447522 -0.0074921482 0.00078886829 
   25000    2.6438447  0.023707766    28372.625    8104.4874 0.0021541757 -0.0091384078 -0.0013722937 
   26000    2.6599866  0.023887248    28372.625    8540.6619 0.0026718784 -0.0049837603 0.0014884829 
   27000    2.6497617  0.023820343    28372.625    8968.9395 0.0014928063 -0.0010525789 0.00090342548 
   28000    2.6419704  0.024098522    28372.625    9394.0296 0.0020191014 -0.0011628831 -0.00063671436 
   29000    2.6456711  0.023136571    28372.625    9837.0054 0.0039357383 0.00049015554 0.0035076765 
   30000    2.6348642  0.023974089    28372.625     10283.71 0.0068289932 0.00039132942 0.00075423895 
   31000    2.6328109  0.024372892    28372.625    10756.999 0.0034489588 -0.0057493022   0.00216667 
   32000    2.6454669  0.024733143    28372.625    11249.782 0.0036868686 -0.0016933293 0.0018951128 
   33000    2.6492136  0.024007885    28372.625    11734.434 -0.00070374951 -0.0037650261 0.0013730756 
   34000    2.6466622  0.023442829    28372.625    12230.597 0.0012144491 -0.0065875271  0.003708672 
   35000    2.6452293  0.023483828    28372.625    12763.135 0.0013730514 -0.0049081914 0.0067704743 
   36000    2.6487106  0.023240214    28372.625    13311.751 0.0026444227 -0.0024350339 0.0081588274 
   37000     2.640984  0.023190468    28372.625    13857.203 0.0025716724 -0.0050283203 0.0061381033 
   38000    2.6276132  0.025274197    28372.625    14395.935 0.0055785383 -0.0086968219 0.0054111005 
   39000    2.6334685  0.023744528    28372.625    14936.988 0.0023912936 -0.0033423503 0.0042128949 
   40000    2.6500365  0.024912917    28372.625    15495.022 0.0035180803 0.00016289316 0.0024405897 
   41000    2.6484793  0.023138875    28372.625    16073.995 0.0012816491 0.00028750312 0.0052161949 
   42000    2.6513585  0.023310208    28372.625    16667.865 0.0044339127 0.0011146151 0.0049621895 
   43000    2.6473206  0.024493534    28372.625    17198.993 0.0065397833 0.0012580672 0.0057627206 
   44000    2.6443848  0.023484738    28372.625    17661.232 0.0059632924 -0.0012817216  0.004433019 
   45000    2.6377408  0.024422136    28372.625     18103.78 0.0052815877 -0.0059118493 0.0061872059 
   46000    2.6498799  0.023624093    28372.625     18496.23 0.0063440664 -0.000599884 -0.00077158656 
   47000    2.6492482  0.023026379    28372.625    18906.397 0.0075265163 0.0028232842 -0.0027716918 
   48000    2.6486727  0.023968327    28372.625    19350.058 0.0072621328 0.0023026822 -0.0019659379 
   49000    2.6498661  0.023305165    28372.625    19842.728 0.0092057044 0.0047543144 -0.0014975116 
   50000    2.6701255  0.023150582    28372.625    20293.533 0.0076331691 0.0053323949 -0.0039259817 
   51000    2.6301801  0.024404322    28372.625    20775.804 0.0088589228 0.0038277702 -0.0014838817 
   52000    2.6546244   0.02330737    28372.625    21269.264 0.0077140031 0.0062803263 -0.0023164585 
   53000    2.6512166  0.023268663    28372.625    21780.161 0.0070009809 0.0036781153 -0.0014082147 
   54000    2.6530377  0.024545864    28372.625    22292.938 0.0075244718 0.0057576334 -0.0028423079 
   55000    2.6365113  0.023874851    28372.625    22818.172 0.0018257046 0.0067690856 -0.00035243812 
   56000    2.6443606   0.02374179    28372.625    23399.869 0.0039730066 0.0047200194 -0.00088637362 
   57000    2.6503344  0.023918602    28372.625    23957.155  0.003661277 0.0048643103 -0.00059367299 
   58000    2.6611478  0.023538974    28372.625    24515.134 -0.00020049049 0.0071000899 0.00032309672 
   59000    2.6531859  0.023555882    28372.625    25053.254 0.00034709968 0.0056222933 0.00084861009 
   60000    2.6573865  0.023893054    28372.625    25532.618 -0.0024114603 0.00084561031 0.0025564413 
   61000    2.6510421  0.023653438    28372.625      25993.8 0.0023737014 -0.002330429 0.0009139088 
   62000    2.6411451  0.023136672    28372.625    26429.324 -0.0013865139 0.00063354235 0.0030480987 
   63000    2.6469017  0.023284294    28372.625    26868.053 0.0018118198 -0.0026310753 0.0038322338 
   64000    2.6534626  0.023079726    28372.625    27306.447 0.0015193172 -0.0014170712 0.0028504437 
   65000    2.6246334    0.0242651    28372.625     27790.54 0.0018334486 0.0012444642 0.0082836955 
   66000    2.6515242  0.023450736    28372.625    28249.125 -0.0027271665 -0.0012130194 0.0039518719 
   67000    2.6505631   0.02325542    28372.625    28673.373 -0.00025520508 0.0001186305 0.0020827987 
   68000    2.6453718  0.023697933    28372.625    29101.888 4.9585928e-05 -0.0024184778 0.0027800791 
   69000    2.6497526  0.023221289    28372.625    29573.616 -0.0014916227 -0.0016141629 -0.00087304587 
   70000    2.6515685  0.023374947    28372.625    30068.272 -0.0022042742 -0.0013855387 0.00048783753 
   71000    2.6568209  0.023472679    28372.625    30583.696 0.00065988919 0.0013594181 0.00041231371 
   72000    2.6472978  0.023398256    28372.625    31051.711 0.00096219721 0.0023569491 0.0028746869 
   73000    2.6385137  0.023080828    28372.625    31512.647 0.00068710915 0.00026543545 0.0020252704 
   74000    2.6504583  0.023816335    28372.625    31977.757 -0.0045720008 -0.0014475464 0.0019895833 
   75000    2.6458632   0.02348493    28372.625    32495.718 -0.0014408098 0.0005673438 0.0015610772 
   76000    2.6449743  0.024022269    28372.625    33055.683 -0.0060507724 -0.0017461002 0.0042389106 
   77000    2.6516594  0.023607132    28372.625    33601.087 -0.004766395 -7.3546809e-05 0.0039742599 
   78000    2.6466497   0.02321567    28372.625    34075.569 -0.0025966991 -0.0011819196 0.0038497019 
   79000    2.6532327  0.023374359    28372.625    34521.697 -0.0015570868 -0.00091471765 0.0020036949 
   80000     2.642332  0.023330818    28372.625    34994.982  0.001336079 0.0038112848 0.0034143875 
   81000     2.643331  0.023573719    28372.625    35414.156 9.8552879e-05  0.007594709 0.00069158354 
   82000    2.6462766  0.023139599    28372.625    35836.585 -0.00078059245 0.0036245836 0.00010034329 
   83000    2.6317826  0.024220783    28372.625    36242.673 -0.002257115 0.0027011652 0.00038905583 
   84000    2.6509692   0.02374801    28372.625    36645.087 -0.0016639015  0.001534757 -0.0014954477 
   85000    2.6477686  0.023038077    28372.625    37035.937 -0.0028159719 -0.00012132055 -0.00048426519 
   86000    2.6238964  0.024609846    28372.625    37388.481 -0.004803708 0.0023425812 -0.00021365159 
   87000    2.6241539  0.024638892    28372.625    37746.468 0.0016113407 -0.0028385144 0.0075648763 
   88000    2.6458137  0.023280684    28372.625    38137.412 -0.0031347809 -0.001121557 0.0038828036 
   89000    2.6342631  0.023624098    28372.625     38588.44 -0.0027559879 -0.0020795654 0.0045580742 
   90000    2.6558738  0.023293652    28372.625    39060.229 -0.0023096577 -0.0010294208 0.0051124831 
   91000    2.6462552  0.023271282    28372.625    39494.457 -0.0047604816 -0.0032820013 0.0026221242 
   92000    2.6436595  0.024305335    28372.625    39940.586 -0.0051119211 -0.0035953269 0.0037298508 
   93000    2.6364373   0.02394919    28372.625    40417.993 -0.0046857684 -0.0090765691 0.0019132839 
   94000     2.650091  0.023809248    28372.625    40926.222 -0.0035803105 -0.0034242885 0.00025540375 
   95000    2.6463285  0.023864825    28372.625    41470.755 -0.0026468781 -0.0013193024 -0.00064596384 
   96000     2.652895   0.02307925    28372.625    42016.034 -0.003988784 0.0017341169 -0.0028926088 
   97000    2.6430787  0.023570713    28372.625    42582.234 -0.0046464215 -0.00043670574 -0.0034081016 
   98000     2.651755  0.023366767    28372.625    43108.629 -0.003780258 0.0024141905 0.00034497536 
   99000    2.6375934  0.023513309    28372.625     43613.14 -0.0054843059 0.0037641178 -0.0011744897 
  100000    2.6484566  0.023203001    28372.625    44098.184 -0.0063905892 0.0040615623 -0.0013843975 
  101000    2.6354474  0.023935434    28372.625    44569.317 -0.0042027129 0.0041447316 -0.0017225947 
  102000    2.6133971  0.025043738    28372.625    45087.874 -0.003848693 0.0021983623 0.0010868327 
  103000    2.6520822  0.023274782    28372.625     45597.35 -0.0028135583 -0.0021388164 -0.00053320862 
  104000    2.6607688  0.023418135    28372.625    46105.284 0.0019295653 -0.0021243089 0.0002659388 
  105000    2.6381336    0.0231255    28372.625    46596.412 0.0034966535 -0.0034485384 0.0018692229 
  106000    2.6484649  0.023208183    28372.625    47076.056 0.0036206677 -0.0025788153 0.0051496347 
  107000    2.6512789  0.023216076    28372.625    47545.137 0.0037378401 -0.0040957991 0.0044880738 
  108000    2.6506859  0.023910011    28372.625    48005.755 0.0067628607 -0.0052223692 0.0046808357 
  109000    2.6485158  0.023882755    28372.625    48462.336 0.0062534239 -0.0051271815 0.0022305966 
  110000    2.6448403  0.023508466    28372.625    48820.204 0.0077248813 -0.0064533798 0.0064901857 
  111000    2.6406489  0.023213199    28372.625    49224.079 0.0085615919 -0.0053227984 0.0042651757 
  112000    2.6356168  0.024345327    28372.625    49696.552 0.0080328143 -0.006185216   0.00129099 
  113000    2.6491243  0.023253514    28372.625    50207.374 0.0063159429 -0.0062084685 0.0012158742 
  114000    2.6381389  0.024142865    28372.625    50699.505 0.0020701482 -0.0022570979 -0.0011526278 
  115000    2.6538285  0.023282935    28372.625    51205.929 0.0014198922 -0.0025815334 -0.00086057097 
  116000    2.6504434  0.023436286    28372.625    51614.673 0.0012656359 -0.002809315 -0.0012865553 
  117000    2.6287738  0.024294116    28372.625    51957.307 -0.0017009584 -0.006314721 0.0004401374 
  118000    2.6405992  0.023977208    28372.625    52264.397 -0.0025721545 -0.0043324865 -0.003237968 
  119000     2.654181  0.023631152    28372.625    52591.428 -0.0011441576 -0.0021488929 -0.001734085 
  120000    2.6431433  0.024061648    28372.625    52896.032 0.00079815179 -0.0021653108 -0.0010292273 
  121000    2.6551186  0.023306836    28372.625    53155.057 0.0017445267 -0.00086936106 0.0027155086 
  122000    2.6441198  0.023446325    28372.625    53429.598 0.00032664706 0.00028576024 0.0029271864 
  123000     2.640545  0.023648365    28372.625    53679.054 0.00029452993 0.00039847998 0.0039902208 
  124000    2.6366425   0.02333981    28372.625    53959.592 0.0057729112 0.0015040848 -0.00031081954 
  125000    2.6459377  0.024198469    28372.625    54307.671 0.0011487558 0.0054632893 0.0033400671 
  126000     2.651123  0.023374809    28372.625    54669.792 0.0028658135 0.0032045635 -0.0012580034 
  127000    2.6519316  0.023735139    28372.625    55032.843 0.0049272248 0.0006212032 -0.0029639728 
  128000    2.6392449  0.024139167    28372.625     55452.34 0.0059658895 -0.0021097739 -0.0037899801 
  129000      2.64364  0.023278041    28372.625    55882.201 0.0057585609 -0.0018657106 -0.0047887774 
  130000    2.6463078  0.023090926    28372.625    56340.259 0.0018449663 -0.0042948808 -0.0046760064 
  131000    2.6413025  0.023335459    28372.625    56852.989 0.0046640674 -0.0053190244 -0.0075996636 
  132000    2.6458701   0.02353063    28372.625    57376.415 0.0040654904 -0.0056647851 -0.0044573119 
  133000    2.6563429  0.023612867    28372.625    57894.467 0.0019490762 -0.0018699778 -0.0036735958 
  134000    2.6494174  0.023175146    28372.625    58367.974 0.0022156692 -0.00099254981 -0.0051596977 
  135000    2.6401279  0.023555885    28372.625    58804.365 0.00085457234 -0.0024675825 -0.0035392091 
  136000     2.657146  0.023307175    28372.625    59263.992 0.0010174896 -0.00078586196 -0.003347443 
  137000    2.6428777  0.024295244    28372.625    59734.454 0.00084425873 -0.00042038838 -0.0042599976 
  138000    2.6461569  0.023693539    28372.625    60220.761 -0.0025150782 -0.00094778844 -0.0030396833 
  139000    2.6434249   0.02425721    28372.625    60721.706 -0.0015958718 0.0017362443 -0.0041994323 
  140000    2.6503061   0.02317652    28372.625     61196.58 0.00029121285 0.0024402245 -0.0020978435 
  141000    2.6512365   0.02373346    28372.625    61676.915 -0.00027288944 0.0081881428 -0.0047265377 
  142000    2.6485892  0.023239392    28372.625    62217.491 -0.0015549461 0.0069765659  -0.00491658 
  143000    2.6360014  0.024589098    28372.625    62805.718 -0.0033047281 0.0058939742 -0.0030179649 
  144000    2.6603225  0.023738396    28372.625    63368.036 -0.0029769692 0.0053708904 0.00032203886 
  145000    2.6364561  0.024222829    28372.625    63872.721 0.0037430194 0.0046149107 0.0032165345 
  146000    2.6344624  0.023655431    28372.625    64382.218 0.0011223289  0.007157812 0.0016008841 
  147000    2.6475822  0.024567788    28372.625    64881.898 0.0013491398 0.0039161781 0.0029751456 
  148000    2.6364403  0.025902829    28372.625    65344.448 -0.0035412528 0.0055771957  0.006494769 
  149000    2.6438451  0.023805862    28372.625    65708.552  0.001569229 -0.0023792486 0.00078098472 
  150000    2.6544221  0.023522553    28372.625    66064.803 0.0032213913 -0.0057189566 0.00099073508 
  151000    2.6465426  0.023412195    28372.625    66496.304 0.0027347648 -0.0058461284 -0.0010680136 
  152000    2.6567566  0.023692625    28372.625    66997.697 0.0044892757 -0.0038351689 0.0047890487 
  153000     2.655311  0.023382536    28372.625    67514.778 0.0060845093 -0.0029801184 0.0035256161 
  154000    2.6313273  0.024487671    28372.625    67971.656 0.0046806859 -0.0040975388  0.008826691 
  155000    2.6440686  0.023643494    28372.625    68396.271 0.0029887754 -0.0046954869  0.005362484 
  156000     2.640807  0.023203656    28372.625    68822.881 0.00097488768 -0.0047858843 0.0025430656 
  157000    2.6031131  0.026809865    28372.625    69283.104 0.00064298075 -0.0076913619 0.0061989524 
  158000    2.6507692  0.023742037    28372.625    69771.113 0.0026660771 -0.0020337574 0.0028876917 
  159000    2.6451004  0.024417056    28372.625    70310.715 0.0017243607 -0.0014580461 0.0039144009 
  160000    2.6413301  0.023965574    28372.625    70823.799 0.0024572992 -0.0035285995 0.0073174843 
  161000    2.6514009  0.023026366    28372.625    71272.884 0.0055213856 -0.00076714269 0.0060435295 
  162000    2.6536432   0.02375211    28372.625    71632.523 0.0048416396 -0.0027223773 0.0055569471 
  163000    2.6484666  0.023314308    28372.625    71981.694 0.0049745871 -0.0019206981 0.0039934661 
  164000    2.6318015  0.023964391    28372.625    72353.202 0.0029611969 0.0027912559 0.0038296995 
  165000    2.6458252  0.023115535    28372.625    72755.552 0.0023848849 0.0025147689 0.0027470495 
  166000    2.6498507  0.023861647    28372.625    73191.408 0.0017443004 0.00040789412 0.0021855881 
  167000    2.6384413  0.024098757    28372.625    73650.734 0.0012765243 0.0021799991 0.00063433078 
  168000    2.6319077  0.023820287    28372.625    74138.789 -0.00097886158 0.00012743821 -0.0013289868 
  169000    2.6562908  0.023352764    28372.625    74622.615 -0.0015362141 0.0022060617 -0.0039623977 
  170000    2.6390469  0.024019864    28372.625    75112.624 -0.00091071973  0.000872595 4.5735692e-05 
  171000    2.6498592   0.02324665    28372.625    75563.572 0.0015979996 0.0016567545 -0.0024093769 
  172000    2.6487439  0.023596661    28372.625    76045.095 -0.001173135 0.0011968895 -0.0029073149 
  173000    2.6412009  0.023320605    28372.625    76562.929 -0.0016141413 0.00040461635 -0.0031682728 
  174000    2.6390957  0.023874118    28372.625    77128.093 0.00099270131 0.0031936245 -0.0038920438 
  175000    2.6400225  0.023679481    28372.625    77700.059 -0.0018034031 0.0015846437 -0.0055910016 
  176000    2.6476645  0.023214771    28372.625    78310.991 0.0021968732 0.0021145271 -0.0060426491 
  177000    2.6435843  0.023366631    28372.625    78939.661 0.0021647191 0.0015231067 -0.0042134598 
  178000    2.6459651  0.023450682    28372.625    79605.609 0.0023792619 0.0027147177 -0.0046163909 
  179000    2.6402476   0.02340641    28372.625    80279.967 0.0030995309 -0.0010105148 -0.0031367543 
  180000    2.6461088  0.023528288    28372.625    81020.181 0.0014625111 0.0013511166 -0.0026754677 
  181000    2.6449883  0.023455194    28372.625    81758.677 -0.0012409965 -0.0013570273 -0.0028037221 
  182000    2.6463656   0.02340823    28372.625    82533.269 -0.0029752523 -0.0022794251 -0.005432826 
  183000     2.639124  0.023830065    28372.625    83304.324 0.00079857565 -0.000545106 -0.0037783144 
  184000    2.6370303  0.023784458    28372.625     84113.28 -0.001581782 -0.00057057122 -0.0050618804 
  185000     2.644019  0.023507205    28372.625    84830.416 -0.0010947221 -0.00069688781 -0.0056779156 
  186000    2.6253768  0.024901806    28372.625    85495.293  0.001901839 -0.00092535906 -0.0082500362 
  187000    2.6400632  0.023419031    28372.625    86234.075 0.0003223641 -0.00042980087 -0.0038920236 
  188000    2.6460624   0.02330474    28372.625    87008.992 -0.0014853684 -3.6288292e-05 -0.0031217364 
  189000    2.6422529  0.023279845    28372.625    87803.396 -0.0032858569 0.00026955429 -0.0037319047 
  190000    2.6424763   0.02330062    28372.625    88592.912 -0.004389393 -8.4715041e-05 -0.0049352234 
  191000    2.6377647  0.023732203    28372.625     89318.52 -0.002370755 -0.0023076553 -0.0013977673 
  192000    2.6351719  0.023209331    28372.625    89988.567 -0.0015737427 -0.0032058088 -0.0010405425 
  193000    2.6625779  0.023790227    28372.625    90665.267 -0.00032134015 0.0009979732 0.0017648891 
  194000    2.6509795  0.024246213    28372.625    91338.267 -0.00083270239 0.0038880736 0.0045934219 
  195000     2.639128  0.023305404    28372.625    92024.186 0.00092309167 0.0031783201 0.0024457681 
  196000    2.6493219  0.024213401    28372.625     92668.56 -0.00030938116 0.0055849391 0.0078960228 
  197000    2.6362761  0.023296566    28372.625    93251.044 -0.005053386 0.0059631362 0.0025129103 
  198000    2.6452412  0.023300756    28372.625    93787.941 -0.0043103464 0.0040387587 0.00019542172 
  199000    2.6354539  0.023488094    28372.625     94392.57 -0.0049089217 0.0060352079 0.00073814165 
  200000    2.6123079  0.026580879    28372.625    94936.302 -0.0096404728  0.015735423 -0.0042837387 
  201000    2.6396552   0.02314364    28372.625    95441.369 -0.0042644547 0.0072294228 0.0042819882 
  202000    2.6490871  0.023301154    28372.625    95833.154 -0.0040869463 0.0079009036 0.0039021189 
  203000    2.6557315  0.023715199    28372.625    96164.144 -0.0028461213 0.0031206214  0.003782138 
  204000    2.6495207  0.023318889    28372.625    96547.531 -0.0035463724 0.0045008079 -0.0014805511 
  205000    2.6412139  0.023772072    28372.625    96951.509 -0.0018155308   0.00430391 -0.0012381994 
  206000    2.6405167  0.024062526    28372.625    97332.806 0.0034007306 -2.5473236e-05 2.1155586e-05 
  207000    2.6552002  0.023639116    28372.625    97664.336 0.0023494133 -0.00049453631 -0.0029328872 
  208000    2.6498156  0.024055928    28372.625    98012.094 0.0055307859 -0.0005767477 -0.0029146871 
  209000    2.6486393  0.023230078    28372.625    98315.796 0.0063689939 -0.00093394807 -0.0020954799 
  210000    2.6573731  0.023388352    28372.625     98645.02 0.0075584431 -0.0035815293 -0.0016449007 
  211000     2.650265  0.023474016    28372.625    98991.401 0.0042147576 -0.0036566829 -0.0019693055 
  212000    2.6423139  0.024334482    28372.625    99364.358 0.0079066842 -0.004842293 0.00045592521 
  213000     2.657279  0.023442699    28372.625    99704.717 0.0088129424 -0.0030552286 -0.0014305043 
  214000    2.6507194  0.023507392    28372.625    100092.15 0.0079464669 -0.0013326883 0.0023459739 
  215000    2.6528609  0.023484688    28372.625     100512.3 0.0032699491 -0.0006708012 0.0026269668 
  216000    2.6458257  0.024217347    28372.625    100953.57 0.0018284532 -0.00048745454 0.0017062093 
  217000    2.6412075  0.023738111    28372.625    101351.77 0.0022919129 0.0024275264 0.0010612948 
  218000    2.6285824   0.02438997    28372.625    101755.29 0.0011025946 0.0060666516 2.1916934e-05 
  219000    2.6424166  0.023434331    28372.625    102230.64 -2.3163599e-05 0.0048912559 0.0019098387 
  220000    2.6347608  0.024632009    28372.625    102831.96 -0.0018567928 0.0028291936 0.0030301338 
  221000    2.6455466  0.023360576    28372.625    103507.63 -0.0010235342 0.0012118262 0.0034537443 
  222000    2.6440411  0.023634945    28372.625    104220.13 -4.2082146e-05 -0.0005441092 0.0031731493 
  223000    2.6379172  0.024606916    28372.625    104936.28 -0.0030472349 -0.00092942845 0.0033628825 
  224000    2.6307596  0.023950222    28372.625    105643.48 0.00082023664 0.0013980699 0.0065238101 
  225000    2.6514951  0.024021399    28372.625    106280.03 2.739874e-05 0.0013113872 0.0025609452 
  226000    2.6523029   0.02329684    28372.625     106911.4 0.0026513482 0.0039017295  0.004526559 
  227000    2.6311434  0.024604464    28372.625     107608.4 0.0023851482 0.0024323028 0.0053254134 
  228000    2.6542569  0.023187242    28372.625     108328.4 0.0021351676 0.0064187414 0.0061565184 
  229000    2.6514267    0.0240498    28372.625     109043.6 -0.002666575 0.0056460411 0.0043696468 
  230000    2.6434975  0.024631371    28372.625    109714.82 -0.0022271082 0.0065448433 0.00021731071 
  231000    2.6413736  0.023876444    28372.625    110361.36 -0.00092919921 0.0063341023 0.0018108809 
  232000    2.6491401  0.023367525    28372.625    110961.22 -0.0028261407 0.0064452037 0.00018985381 
  233000    2.6472346  0.023566982    28372.625    111548.65 -0.0021853133 0.0077616376 0.0046734011 
  234000    2.6460373  0.023619471    28372.625    112122.19 -0.0030709301  0.010220592 0.0011412306 
  235000    2.6442239  0.023488472    28372.625    112619.57 -0.0040885097 0.0062661974 -0.0013352595 
  236000    2.6406073  0.023979439    28372.625     113118.6 -0.00077989488 0.0068764308 0.0012944053 
  237000    2.6397684  0.023443964    28372.625    113584.95  -0.00343276 0.0044969511 -0.0011488486 
  238000    2.6421287  0.024481956    28372.625       114078 -0.0038366673 0.0062074815 0.00080615716 
  239000    2.6505715  0.023401394    28372.625    114535.64 -0.00096053524  0.002306254 -3.2709514e-05 
  240000    2.6361265  0.023658085    28372.625    114918.64 0.0015382604 0.0040182241 0.0044445889 
  241000    2.6531559  0.023280019    28372.625    115254.31 0.0014685465 0.0045872259 0.0033766521 
  242000    2.6480573  0.023294117    28372.625    115658.93 0.0017744704 0.0021313637 0.0049113171 
  243000    2.6557704  0.023544321    28372.625    116015.76 0.0038328416 0.0028054739 0.0062852157 
  244000     2.644338  0.024290825    28372.625    116489.63 0.0021425256 0.0051798404 0.0031277729 
  245000    2.6463222  0.023582453    28372.625    117008.73 0.0010135501 0.0027967625 0.0026972911 
  246000    2.6448372  0.024244287    28372.625    117512.93 0.0031154131 0.0036024651 0.0028061224 
  247000    2.6526452  0.023055158    28372.625    117947.01 -0.00023120222 0.0022276579  0.001384951 
  248000    2.6501388  0.023142565    28372.625     118350.3 0.00096050254  0.001612027 0.0014505683 
  249000    2.6384793  0.023258293    28372.625    118804.46 0.0012426239   0.00105413 0.00081235888 
  250000    2.6379472  0.023164198    28372.625    119314.23  0.001988813 0.00036688424 -0.0031593328 
  251000    2.6555794  0.023231144    28372.625    119886.36  0.004745192 0.0017902014 -0.0050436212 
  252000    2.6443412  0.023957861    28372.625    120464.98 0.0012278981 0.0020079603 -0.0039179867 
  253000    2.6524343  0.023653753    28372.625    121059.05 0.0063743168 0.0023414284 -0.0037145062 
  254000    2.6451112  0.023799005    28372.625    121653.82 0.0057016615 0.0030556285 -0.0026862655 
  255000    2.6455961  0.023865543    28372.625    122350.68 0.0067306647 0.0023250003 -0.0031034035 
  256000    2.6253293  0.026707174    28372.625     123005.3  0.002426926 0.0030209972 -0.0070158217 
  257000    2.6329714  0.024099431    28372.625    123735.58 0.0020669755 0.0035650911 -0.0053908126 
  258000    2.6550809  0.024194438    28372.625    124457.96 0.0051247629 0.0018716488 -0.0022263699 
  259000    2.6535621  0.023677634    28372.625    125115.18 0.0026000593 0.00081489161 -0.00093528957 
  260000    2.6472997  0.023370954    28372.625    125624.43 -0.0010397115 -0.00045572232 0.0013483344 
  261000    2.6518991  0.023190485    28372.625    126045.94 -0.00095260142 -0.00066649166 0.0020657628 
  262000    2.6590381  0.023724089    28372.625    126441.67 0.0011145248 -0.0014813942 0.0013671815 
  263000    2.6528103  0.023304082    28372.625    126780.16 -0.00020916223 -4.173343e-05  0.001401014 
  264000    2.6444341  0.023248614    28372.625    126975.44 0.00018855794 0.0024890108 0.0021187468 
  265000    2.6418518  0.023426799    28372.625    127048.97 -0.00029268981 0.00020407774 0.0039566127 
  266000    2.6433226  0.023339199    28372.625    127194.51 -0.0011575459 0.00025534028 0.0041026444 
  267000    2.6432873  0.023373155    28372.625     127432.6 -0.0025343133 -0.0062369171 0.0048628022 
  268000    2.6422266  0.023482186    28372.625     127617.7 -0.007115417 -0.0092745764 0.0022268138 
  269000    2.6392256  0.024353161    28372.625    127704.33 -0.0045928415 -0.0063386875 0.0041985567 
  270000    2.6407764  0.023240447    28372.625    127808.55 -0.0055791538 -0.0075264492 0.0047713847 
  271000    2.6340975  0.024098129    28372.625    127964.92 -0.0056226901 -0.0065330309  0.006635411 
  272000    2.6297208  0.024288999    28372.625    128154.48 -0.0055835961 -0.0051499645 0.0070916403 
  273000     2.640101  0.023824292    28372.625    128331.51 -0.0006136687 -0.0055462799 0.0094397124 
  274000    2.6436046  0.023201224    28372.625    128599.09 -0.0008871781 -0.0065526221  0.011141199 
  275000    2.6453617  0.024299535    28372.625     128904.7 0.00049945194 -0.0047153134  0.013202799 
  276000    2.6331717  0.023601312    28372.625    129329.09 -0.00026651517 -0.0060434583 0.0084561411 
  277000    2.6492885  0.023991385    28372.625    129655.12 0.00099909733 -0.0028961177 0.0082410125 
  278000    2.6440793  0.023488654    28372.625    130045.18 0.0041273479 -0.002716455 0.0040743081 
  279000     2.640688  0.023803197    28372.625    130328.61 0.0020249064 -0.0033794114 0.0017884517 
  280000    2.6555627  0.023169435    28372.625    130672.78 0.0015177253 -0.005498357 0.0023539029 
  281000    2.6433464  0.023410581    28372.625    131116.71  0.001108664 -0.0056917759 0.0011084405 
  282000    2.6262392  0.025546044    28372.625    131569.39 -0.00083699348 0.0003870188 -0.0020908081 
  283000    2.6426273  0.023392737    28372.625    131955.29 -0.0013493024 -0.0051450781 0.0017196138 
  284000    2.6437282  0.024278608    28372.625    132338.86 -0.005608213 -0.00067858287 -0.0025487381 
  285000    2.6462553  0.023664363    28372.625    132699.51 -0.0073774845 -0.0012986884 -0.0029195583 
  286000    2.6517523  0.023601348    28372.625    133095.65 -0.0093863852 -0.0011913571 -0.0044085142 
  287000    2.6387281  0.024622436    28372.625    133452.73 -0.0076676448 0.0017035304 -0.0035213751 
  288000    2.6421596  0.023408933    28372.625    133901.29 -0.0022383525 0.0012942141 -0.00093326808 
  289000    2.6504869  0.023415041    28372.625    134457.08 -0.0018752988 0.0023876624 0.00090884734 
  290000    2.6483181  0.023617189    28372.625    135031.36 -0.00011693505 0.0015829384 0.0012592959 
  291000    2.6423635  0.023372166    28372.625    135572.07 0.0021488778 0.0027929994 -0.0016655779 
  292000    2.6618779   0.02343459    28372.625    136113.25 -0.00079542902 0.00068813856 -0.003182927 
  293000    2.6288825  0.024520863    28372.625    136705.74 0.0016918665 0.0018467302 -0.0035336075 
  294000     2.652893  0.024189588    28372.625    137309.28 -0.004109128 0.0035030519 -0.0033954627 
  295000    2.6453412  0.025215232    28372.625    137885.91 -0.0057756096 0.00090163176 -0.0036932779 
  296000    2.6385292  0.023649134    28372.625    138460.41 -0.0071377572 0.0017788434 -0.0016610509 
  297000    2.6602528  0.023849595    28372.625    138985.33 -0.0086390957 0.00088509331 -0.0014166528 
  298000    2.6506797  0.023341577    28372.625    139545.14 -0.0065737396 -0.0009758824 -0.00055260968 
  299000    2.6450823  0.023653899    28372.625    140123.79 -0.0053001186 -0.00015033586 0.0023072246 
  300000    2.6416188  0.023323856    28372.625    140684.83 -0.0087084621 -0.0010531148 0.0039957526 
  301000    2.6354647  0.023319626    28372.625    141257.45 -0.0087897675 -0.0020425865 0.00028732716 
  302000    2.6491574  0.023346123    28372.625    141872.83 -0.0085199481 -0.00049215043 0.0012759288 
  303000    2.6503577  0.023811332    28372.625    142533.48 -0.0047114329 0.00013695216  0.001584915 
  304000    2.6464072  0.023319683    28372.625    143134.02 -0.0054731105 0.0011782018  0.001236035 
  305000    2.6356431  0.024535159    28372.625    143687.27 -0.0027558531 0.0071903773 0.0037134181 
  306000    2.6283951  0.023665513    28372.625    144248.42 -0.0039831547 0.0045670643 0.0030066766 
  307000    2.6385065  0.023391386    28372.625    144819.59 -0.0051220232 0.0030115625 0.00048505907 
  308000    2.6382405  0.023846736    28372.625    145408.08 -0.0027411867 0.0057578139 -0.00034932159 
  309000    2.6421387  0.023392266    28372.625    145964.89 -0.00077556499 0.0052264503 -0.0024927021 
  310000    2.6380304  0.023744719    28372.625    146494.54 0.00094232393 0.0027012493 -0.00034442107 
  311000     2.647416  0.024075554    28372.625    146990.47 0.0035957419 -0.0035631896 -0.0012002746 
  312000    2.6498767  0.023772929    28372.625     147458.4 0.0024464434 -0.0034748572 -0.0027482771 
  313000    2.6432982  0.023127536    28372.625    147980.58 0.0012835328 -0.0018491015 -0.0049698974 
  314000    2.6363654  0.024360078    28372.625    148520.13 0.00058472513 -0.0028010044 -0.0031819937 
  315000    2.6382316    0.0246365    28372.625    149047.65 0.0021307146 0.0021789058 -0.0067491508 
  316000    2.6521754  0.023386821    28372.625    149472.92 0.0049762608 -0.0019660206 -0.0044594617 
  317000    2.6502924  0.023520301    28372.625    149874.18 0.0074652502 -0.0028430501 -0.0040409264 
  318000    2.6368887  0.023841998    28372.625    150235.54 0.0051711451 -0.0058081567 -0.0028854207 
  319000    2.6599062  0.023137691    28372.625    150718.62 0.0078268344 -0.0053665694 -0.0038172493 
  320000    2.6489415  0.023258491    28372.625    151228.05 0.0086252845 -0.0067500034 -0.0016793608 
  321000    2.6528106  0.023829767    28372.625    151810.16 0.0079297754 -0.0058333874 -0.0045444498 
  322000    2.6514226  0.024012607    28372.625    152438.72 0.0081991216 -0.0074091748 -0.0043258345 
  323000    2.6514959  0.023767367    28372.625    153000.34 0.0099555526 -0.0066038691 -0.0061070402 
  324000    2.6528192  0.024144575    28372.625    153549.63  0.010649219 -0.0031903333 -0.0041100373 
  325000    2.6449496  0.023149226    28372.625    154101.11  0.012030099 -0.00088450834 -0.0053397536 
  326000    2.6598797  0.023215494    28372.625    154586.82  0.014273741 -0.0010728393 -0.0043092087 
  327000    2.6364651   0.02478081    28372.625    155099.77  0.014741965 -0.010369496 -0.0077810621 
  328000    2.6416681  0.023946305    28372.625    155563.31  0.015338307 -0.0013418796 -0.0059632186 
  329000    2.6473344  0.023540751    28372.625    156090.29  0.012333659 0.0013024931 -0.0059490812 
  330000    2.6596504    0.0232077    28372.625    156594.75 0.0090840155 0.0024961272 -0.0067872954 
  331000    2.6565245   0.02331406    28372.625     157100.8 0.0078952206 0.0047944954 -0.0066591016 
  332000      2.63326  0.024636047    28372.625    157673.88 0.0059983841 0.0036929105 -0.004704685 
  333000    2.6281679  0.024480361    28372.625    158298.81 0.0039628888 0.0047679788 -0.00042240981 
  334000    2.6362495  0.023524459    28372.625     158969.2 0.0076192517 0.0040561916 0.00076881606 
  335000    2.6494466  0.023520452    28372.625    159632.43 0.0070873156 0.0056830632 -0.0026129773 
  336000    2.6601575  0.023011186    28372.625    160299.31 0.0052862614 0.0053265426 -0.0023438253 
  337000    2.6437194  0.023657826    28372.625    160891.42 0.0038131883 0.0037515381 -0.0038217786 
  338000    2.6202144  0.024975236    28372.625    161408.25 -0.00044666829 -0.0038504978 -0.0085505036 
  339000    2.6361349  0.023294733    28372.625    161788.64 0.0032707064 0.0032423733 -0.0076692249 
  340000    2.6549741  0.023484319    28372.625    162125.85 0.0063059698 -0.0011986631 -0.00088624102 
  341000    2.6451257   0.02378303    28372.625    162577.43 0.0051401498 0.0013656164 -0.00062259896 
  342000    2.6305382  0.024091966    28372.625    162986.91 0.0065389527 0.0033754579 0.0020784711 
  343000    2.6432424  0.023826545    28372.625    163439.79 0.0094640504 0.0023636827 0.00041687389 
  344000    2.6468817  0.023519709    28372.625    163883.44 0.0062309701 0.0031022019 0.0021965907 
  345000    2.6469343  0.023446814    28372.625     164309.8 0.0030082734 0.0015831655 -0.00037978317 
  346000     2.655601  0.023098439    28372.625    164780.45 0.0041359089 0.0025577262 0.0011259368 
  347000    2.6369107  0.023111137    28372.625    165239.47 -0.00042866647  0.001934206 9.7772899e-05 
  348000    2.6456744  0.023655839    28372.625    165741.34 0.0015881077 0.00012137068 -0.00079290219 
  349000    2.6468945  0.023054334    28372.625    166136.23 -0.0018274387 0.0016963674 0.00027188953 
  350000    2.6465138  0.023573233    28372.625     166538.3 -0.0020359365 0.0027537496 -0.0021349418 
  351000    2.6417956  0.023655821    28372.625    166920.33 -0.00010159478 0.0050030184 -0.0023009583 
  352000    2.6504452  0.023501986    28372.625    167282.08 0.0021621445 0.0025010852 -0.0032031794 
  353000     2.647453  0.023164277    28372.625    167676.72 0.0020349724 0.0028706344 -0.0042225967 
  354000    2.6463615  0.023336906    28372.625    168050.54 3.2888404e-05  0.003114174 -0.0025608937 
  355000    2.6542015  0.023580199    28372.625    168436.91 0.0015969831 0.0045035322 -0.004025011 
  356000    2.6408436  0.024805121    28372.625    168889.14 -0.0001891468 0.0057356413 -0.0051402585 
  357000    2.6427841  0.023395448    28372.625    169491.33  0.001119882 0.0052714181 -0.0041088279 
  358000    2.6397368  0.023781161    28372.625    170204.05 -0.0017619708 0.0015118308 -0.0029658036 
  359000    2.6439159  0.023792467    28372.625    171074.27 0.00035241441 0.00018407907 -0.0025028633 
  360000    2.6397548  0.023277627    28372.625    171887.33 0.00041720918 0.0027458082 -0.0037110893 
  361000    2.6462585  0.024228178    28372.625    172731.56 0.0024984867 0.0046123127 -0.0018260132 
  362000    2.6466883  0.023413362    28372.625    173475.37 0.0062576021 0.0024412361 -0.0020097667 
  363000    2.6381109   0.02338437    28372.625     174191.9 0.0044335738 0.0015504399 -0.0015865923 
  364000    2.6378603  0.024443405    28372.625    174985.12 0.0014105591 -0.0023945229 -0.0036186547 
  365000    2.6492873   0.02316846    28372.625    175747.45 0.0039809417 2.591892e-05 -0.0018706933 
  366000     2.632647  0.023880377    28372.625    176265.23 0.0091614394 0.0034130152 -0.0010106719 
  367000    2.6590095   0.02343422    28372.625    176679.79 0.0089575386 0.0015093539 -0.00064648289 
  368000     2.653205  0.023480488    28372.625    177038.93 0.0080331858 0.0016771082 0.00018027452 
  369000    2.6555513   0.02356683    28372.625    177349.53 0.0060451726  0.002514652 0.00075324663 
  370000     2.656851  0.024029713    28372.625    177619.48   0.00235371  0.005387669 -0.0022889281 
  371000    2.6478788  0.024093507    28372.625    177977.93 0.0063094525 -0.00070080625 -0.001992681 
  372000    2.6576808  0.023308896    28372.625       178336 0.0035577574 0.0020358112 -0.0035156041 
  373000    2.6582722  0.022955495    28372.625     178724.3 0.0042820508 0.00059881507 -0.0040140599 
  374000    2.6410134  0.023797263    28372.625    179134.43 0.0060180017 -0.00019505761 -0.0045030982 
  375000    2.6497029  0.023810379    28372.625    179587.61 0.0054734592 -0.0028461796 -0.00084938663 
  376000    2.6526177   0.02383117    28372.625    180116.03 0.0041588205 -0.00051640617 -0.00068334023 
  377000      2.64972  0.023320454    28372.625    180549.42 0.0048056473 -0.0007963057 -0.0079224472 
  378000    2.6517571  0.023592835    28372.625    180863.52 0.0043296207 -0.0029701779 -0.0082802948 
  379000    2.6455753  0.023781339    28372.625    181253.22 0.0080779361 -0.0020725176 -0.007973986 
  380000    2.6529315  0.023454654    28372.625     181679.5 0.0063489717 -0.0043576438 -0.0068454841 
  381000    2.6543651  0.023294915    28372.625    182172.22 0.0092411833 -0.0071166042 -0.0017954646 
  382000    2.6463554  0.023700144    28372.625    182566.79 0.0076990083 -0.0051255186 0.0007840249 
  383000    2.6457123  0.023894544    28372.625    182796.26 0.0093512546 -0.0047426173 -0.0013293191 
  384000    2.6561851  0.023489264    28372.625    183007.23  0.010003729 -0.0024861042 0.0012883324 
  385000    2.6344093  0.024380572    28372.625    183186.45  0.011174603 0.0045803822 0.0021225078 
  386000    2.6488715  0.023502215    28372.625    183426.22 0.0064710703 0.0023038779 -0.00053061053 
  387000    2.6412801  0.023237831    28372.625    183711.14 0.0054129416 0.0040043675 -0.0016684211 
  388000    2.6444674  0.023324633    28372.625    184096.88 0.0039460873 0.0017440424 -0.00049490236 
  389000    2.6392712  0.024552696    28372.625    184344.48 0.0017784964 0.0021478099 -0.00076791052 
  390000    2.6497266  0.023329085    28372.625    184604.57 0.0034625818 0.0012722009 0.00037189905 
  391000    2.6444703   0.02341081    28372.625    185014.74 0.0068418343 -0.00041735612 -0.0010039385 
  392000    2.6486145  0.023170254    28372.625    185440.51 0.0054167009 0.0011589739 -0.0015704818 
  393000    2.6412911  0.024197872    28372.625    185822.01  0.003616153 0.0016626918 -0.002000174 
  394000    2.6372172  0.023687253    28372.625    186264.22 0.0035320552 -0.00032574021 -0.0011226837 
  395000    2.6434858  0.023364711    28372.625    186682.36 0.0023366165 0.00069302208 -0.0013285376 
  396000     2.640361  0.023959528    28372.625    187014.73 0.00032715115 0.0012477427 0.0013763965 
  397000    2.6323829  0.024567786    28372.625    187394.78  0.004066297 0.0013812584 -0.0011343447 
  398000    2.6288298  0.023633392    28372.625    187776.25 0.0044366468 -0.00084308582 0.0020849734 
  399000    2.6451281  0.023955431    28372.625    188055.29 0.0054398974 -0.00032327135 -0.0019597914 
  400000    2.6347228  0.023214621    28372.625    188296.15 0.0050757846 -0.00050194647 -0.00049099291 
  401000    2.6358409   0.02373461    28372.625    188549.37   0.00688888 -0.0022950876 0.0015552742 
  402000    2.6501993  0.023655623    28372.625    188858.84 0.0053311749 9.7750939e-05   0.00040693 
  403000    2.6366818  0.023691876    28372.625     189231.4 0.0035537621 -0.00042713513 0.0034171695 
  404000    2.6416324  0.023646277    28372.625    189569.75 0.0043881954 1.4216027e-06 0.0010191902 
  405000    2.6521697  0.023085559    28372.625    189793.13 0.0038331706 0.00043208564 0.0015409026 
  406000    2.6558277  0.024500388    28372.625    190111.39 0.00037387861  -0.00272289 0.0014201209 
  407000    2.6492503  0.024503034    28372.625    190393.06 0.0063059152 0.00010307842 0.0021275987 
  408000    2.6458822  0.023442466    28372.625    190658.27 0.0032514602 -0.00020375807 0.0016649237 
  409000    2.6469393  0.023543504    28372.625    190983.99 0.0025383453 -0.0067361517 0.0053940115 
  410000    2.6460535  0.024197298    28372.625    191256.99 -0.0017301327 -0.0059634796 0.0046313081 
  411000     2.657041  0.023485815    28372.625    191531.41 0.0016001206 -0.0082022499 0.0027924348 
  412000      2.63978  0.023219487    28372.625    191842.33 -0.0019594524 -0.005614822 -0.00079010809 
  413000    2.6570758  0.023764949    28372.625    192157.96 -0.0015230718 -0.0087451814 -0.0018398357 
  414000    2.6493057  0.023062408    28372.625     192375.8 -0.00083668829 -0.0085668601 -0.001319627 
  415000    2.6529566  0.023558542    28372.625    192685.09 0.0037371182 -0.011397614 -0.0015200914 
  416000    2.6454527  0.023238344    28372.625    192941.38 0.0036413839 -0.012662705 0.00089420183 
  417000    2.6471104  0.024181064    28372.625    193149.29 0.0042553623 -0.009743978 -0.00020088979 
  418000    2.6466301  0.023249392    28372.625     193407.3 0.0042749612 -0.0092458817 0.0014188837 
  419000    2.6417686   0.02313597    28372.625    193779.08 0.0042091412 -0.0041866515 -0.00017817118 
  420000    2.6271577  0.024183496    28372.625    194200.18 0.0014736057 -0.0036456301  0.000717044 
  421000    2.6447169  0.023621744    28372.625    194690.08 0.0014651425 -0.0033393009 -0.00076931897 
  422000    2.6349759  0.023636271    28372.625    195136.56 0.00070124089 -0.0023790212 -0.00033710947 
  423000    2.6551675  0.023260581    28372.625     195686.2 0.0044612075 0.00019888324 -0.001351736 
  424000    2.6455317  0.023643606    28372.625     196357.7 0.0038345246 -0.0010063455 -0.0039126529 
  425000    2.6395833  0.023868817    28372.625    196973.82 0.0085311202 -0.0016154703 -0.003161605 
  426000    2.6461844  0.023211421    28372.625    197540.76 0.0058949184 -0.00029291176 -0.0046008426 
  427000    2.6422311  0.023318354    28372.625    198036.07 0.0068213122 -0.0013511314 -0.0056735133 
  428000    2.6475798    0.0236833    28372.625    198492.26  0.003767316 -0.002188533 -0.0054999087 
  429000    2.6419603  0.023591019    28372.625    198925.92 0.0057381856 -0.0041600732 -0.0063949879 
  430000    2.6380647  0.023344186    28372.625     199254.7 0.0042842645 -0.003922444 -0.0069907609 
  431000    2.6440876  0.023386291    28372.625    199581.44 0.0055582553 -0.0026185138 -0.0058941339 
  432000    2.6493328  0.023892614    28372.625     199905.9 0.0035334644 -0.0014376015 -0.0050727659 
  433000    2.6474124  0.023476521    28372.625    200315.74 0.0032427591 -0.0024948177 -0.0061554289 
  434000    2.6375091  0.023997413    28372.625    200693.95 0.0043414207 -0.0031095896 -0.0049819428 
  435000    2.6480192  0.023833516    28372.625    201111.01 0.0037347006 0.0010155316 -0.0024275458 
  436000    2.6556218  0.023009998    28372.625     201664.9 -3.6649143e-05 0.00016523814 0.00047668825 
  437000    2.6353484  0.024163302    28372.625    202233.31 0.0038016034 0.0027432845 -0.0036957038 
  438000    2.6559158  0.023201841    28372.625    202882.81 0.0044495244 -0.0028867743 -0.00028995672 
  439000    2.6501839  0.023750327    28372.625    203504.31  0.004759722 0.00027868485 -0.00025186702 
  440000    2.6472776  0.023073199    28372.625    203987.41 0.0035036923 0.0028948892 0.0010651238 
  441000    2.6459195  0.023328833    28372.625    204576.15 0.0040256002 0.0046774407 -0.00065546609 
  442000    2.6473265  0.023945641    28372.625    205114.91 0.0032468703 0.0057801822 -0.0025949518 
  443000    2.6451246  0.023406185    28372.625    205637.52 0.0020512153 0.0056130003 -0.00067029222 
  444000    2.6467033  0.023427248    28372.625    206226.73 -0.00030557127 0.0045247079 -0.0011739162 
  445000    2.6431121  0.023464357    28372.625    206865.23 0.00063546642 0.0039766576 -0.00070939291 
  446000    2.6520371  0.023707588    28372.625    207543.19 0.00047004063 0.0051818569 -0.00043154775 
  447000    2.6416223  0.023517669    28372.625    208138.99 0.00057599841 0.0045562311 -0.0037059694 
  448000    2.6438578  0.023428093    28372.625     208685.3 -0.0017698456 0.0051983207 -0.00049975739 
  449000    2.6441622  0.023016229    28372.625    209253.02 0.0019506544 0.0048155167 -0.0032364866 
  450000     2.651901  0.023321552    28372.625    209896.54 0.0019954812 0.0049903057 -0.0043625367 
  451000     2.644317  0.023729072    28372.625    210565.64 -0.00096061092 0.0055761755 -0.0051170999 
  452000    2.6393279  0.024189665    28372.625    211224.24 -0.0015424129 0.0060992636 -0.0032897812 
  453000    2.6451927   0.02314419    28372.625    211823.65 0.0025200351 0.0054577778 -0.0035004213 
  454000    2.6349841   0.02518258    28372.625    212466.52 0.0047402748 0.0055304551 -0.0014688362 
  455000    2.6381783  0.023474112    28372.625    213065.41 -0.0009190493 0.0038569847 -0.0025207474 
  456000    2.6473671   0.02361504    28372.625    213647.11 -0.0010795981 0.0041085337 -0.0034222627 
  457000    2.6331508   0.02407905    28372.625    214235.47 -0.0047869633 0.0047577719 -0.0055602258 
  458000    2.6426526  0.023701886    28372.625     214741.2 -0.0020521933 0.0022080129 0.00035671901 
  459000    2.6498536  0.023182578    28372.625    215136.86 -0.0026880707 0.00038744335 5.016736e-05 
  460000    2.6412724  0.023630968    28372.625    215614.73 -0.0051228606 0.0019005125 0.0010573283 
  461000    2.6533004  0.023408407    28372.625    216009.37 -0.0018174662 -0.0013513567 -0.0017460948 
  462000     2.640181  0.024205105    28372.625     216482.7 -0.0012405836 0.0013051378 -0.0001243651 
  463000    2.6509856  0.023898754    28372.625    217012.53 -0.0032808919 0.0041360169 -0.0013701388 
  464000    2.6471796  0.023849201    28372.625    217492.16 -0.001953188 0.0062386048 0.00062668397 
  465000    2.6674847  0.023302138    28372.625    217969.88 -0.0068620181 0.0060815759 0.0014360258 
  466000    2.6340394  0.024668729    28372.625    218550.74 -0.0075024062 0.0021503031 -0.0039147987 
  467000     2.656639  0.024581275    28372.625    219199.33 -0.0024867794 0.0010714408 -0.0020636325 
  468000    2.6442317  0.023968834    28372.625     219863.2 -0.0013827226 0.00049313184 -0.0045735187 
  469000    2.6528974  0.023746371    28372.625     220600.2 -0.0028310772 0.00055769341 -0.0044262848 
  470000    2.6517941  0.024297859    28372.625    221282.88 -0.0019750167 0.0028782762 -0.0057196637 
  471000    2.6514904  0.024302493    28372.625    222010.91 -0.00054573705 0.0025031716 -0.0063526583 
  472000    2.6482072  0.024264009    28372.625    222650.14 0.0025313273 0.0025373692 -0.003056577 
  473000    2.6430549  0.024145833    28372.625    223304.84 0.00099928618 0.00061430727 0.0012676645 
  474000    2.6417101  0.023561211    28372.625    223963.71 -0.0033185358 -0.0012246211 0.0024321898 
  475000    2.6389388  0.023469756    28372.625    224594.98 -0.0055669919 -0.0059308978 0.0016551078 
  476000     2.643681  0.023565168    28372.625    225240.95 -0.0048774447 -0.0043058098 0.0014118438 
  477000     2.652596  0.023584814    28372.625    225755.13 -0.0042606761 -0.0032939349 0.00044619155 
  478000    2.6531376  0.023434421    28372.625     226286.3 -0.002754331 -0.00034404723 0.0013383984 
  479000    2.6407385   0.02348946    28372.625    226826.47 -0.0027519979 -0.0016884262 0.0024886006 
  480000    2.6365959  0.024316371    28372.625    227215.37 -0.0031035516 -0.0028264911 0.0036302998 
  481000    2.6514411  0.023728026    28372.625    227486.23 -0.0043099369 -0.0037446333 0.0056087108 
  482000     2.648141  0.023073661    28372.625    227789.75 -0.0049815573 -0.0028972665 0.0031548635 
  483000    2.6355003  0.023945001    28372.625    228063.11 -0.0082395205 -0.0019848486 0.0029141586 
  484000    2.6514935  0.024404354    28372.625     228349.8 -0.0026942453 -0.0014270334  0.004906169 
  485000    2.6345019  0.023872834    28372.625    228582.64 -0.0023389962 -0.00046013374 0.0058333169 
  486000    2.6485242  0.023847268    28372.625    228924.84 -0.0020301286 -1.8088751e-05 0.0049085724 
  487000    2.6465034  0.023535343    28372.625    229307.54 -5.1796046e-05 0.0021281068 0.0062220918 
  488000    2.6434304  0.023404526    28372.625    229547.78 -0.0035200479 0.0023273582 0.0062262422 
  489000    2.6640723  0.023399332    28372.625    229793.91 -0.006564866 0.00073084853 0.0066074409 
  490000    2.6540886  0.023115574    28372.625    230199.96 -0.0063365765 0.0022243261 0.0060269924 
  491000    2.6388874  0.023658145    28372.625    230663.87 -0.0042334032 -0.00018288644 0.0040122704 
  492000     2.651063   0.02386115    28372.625    231083.55 -0.0036276147 0.0022465057 0.0037613598 
  493000    2.6565998  0.023054189    28372.625    231546.82 -0.0049280899 -0.00025458839 0.0046059006 
  494000    2.6567342  0.023572398    28372.625    231999.73 -0.0037118763 -0.0018962118 0.0054132832 
  495000       2.6417  0.023614215    28372.625    232450.52 -0.0010384418 0.00073532441 0.0046073836 
  496000    2.6573033  0.023926233    28372.625    232797.03 -0.0031070825 0.0040575946  0.007042703 
  497000    2.6512809  0.023171443    28372.625    233067.17 -0.00068953099 0.0051519309 0.0043327181 
  498000    2.6447043  0.023340707    28372.625    233370.32 -0.0010733775 0.0052706868 0.0017124948 
  499000    2.6446904  0.023313137    28372.625    233791.93 -0.0005736033 0.0032463514 -0.00030022796 
  500000    2.6443517  0.023253527    28372.625    234096.82 -0.0022761391 0.0031120379 0.0018339039 
  501000    2.6501689  0.023233193    28372.625     234527.9 0.0024545058 0.0017695024 -0.0031530865 
  502000    2.6572674  0.024034957    28372.625    235082.45 0.0034867859 0.0010387533 -0.0039899204 
  503000     2.646891  0.023464939    28372.625    235598.89 0.0016084464 -0.00030574103 -0.0015159073 
  504000    2.6506076   0.02389691    28372.625    235898.26 0.0016703055 -0.0012967152 -0.00039786182 
  505000     2.649441  0.024110443    28372.625     236372.5 0.0042913724 -0.00056120591 -0.0013996821 
  506000    2.6467301  0.023583268    28372.625    236856.82  0.002783291 -0.00034252583 -1.7267086e-05 
  507000     2.650871   0.02352736    28372.625    237382.81 0.00012736857 -0.0028948216 0.0028735535 
  508000    2.6467161  0.023280388    28372.625    237939.82 -0.0039227253 0.00038293581 0.0035527939 
  509000    2.6500068   0.02352526    28372.625    238530.06 -0.0040445496 0.00055877908 0.0034122542 
  510000    2.6574543   0.02314419    28372.625    239019.01 0.0042250338 0.00065411698 0.0027311671 
  511000    2.6470191   0.02371992    28372.625    239528.47 0.0012128023 -0.0037174481 0.0008028988 
  512000    2.6416285  0.023747063    28372.625    240138.29 0.0048004042 0.00038202818 0.0010958324 
  513000    2.6423725  0.024301235    28372.625    240831.27    0.0041075 0.0021672832 0.00035780332 
  514000    2.6434173  0.024195787    28372.625    241599.98 0.0024577521 0.0037405802 -0.0033580778 
  515000    2.6404899   0.02346011    28372.625    242458.18 0.0031119148 0.0042242374 -0.003570397 
  516000    2.6475445  0.023473678    28372.625    243367.45 0.0011364631 0.0046551285 -0.0027867106 
  517000    2.6359135  0.024549939    28372.625    244217.45 0.0016125284 -0.00062003201 -0.0022169067 
  518000    2.6377901  0.023401155    28372.625    244946.39 0.0030371704 0.0069637828 -0.0003863717 
  519000    2.6527362  0.023646129    28372.625    245610.81 0.0038878223 0.0055339269 -0.00022498248 
  520000    2.6405655  0.024749298    28372.625    246282.05 0.0052643708 0.0038154806 0.00070738247 
  521000    2.6458569  0.023897761    28372.625    247043.53 0.0027080204 0.0024121951 -0.0022773324 
  522000    2.6461177   0.02318597    28372.625    247826.05 0.0038741381 0.0021037744 -0.0018135154 
  523000    2.6394112  0.024003082    28372.625    248514.54 0.0063099507 -0.00087160577 -0.004459163 
  524000    2.6444527  0.023630208    28372.625    249193.44 0.00070914941 0.0006847128 -0.0030285637 
  525000     2.651869  0.023895926    28372.625    249991.94 0.0015314981 -0.00085331821 -0.005524664 
  526000     2.657224   0.02321901    28372.625    250728.45 0.0027220914 -0.0027299684 -0.005067186 
  527000    2.6367397  0.023152687    28372.625    251578.91 0.0041397055 -0.0052444719 -0.0018218534 
  528000    2.6388743  0.024438995    28372.625    252466.56 0.0040949603 -0.0053493112 -0.0030344619 
  529000    2.6424303  0.023309509    28372.625    253311.66 0.0036403089 -0.0098966716 -6.0695554e-05 
  530000    2.6530418   0.02365944    28372.625    254083.68 0.0042225938 -0.0087800934 0.0016336854 
  531000    2.6549666  0.023581012    28372.625     254860.4 0.0044327929 -0.0075459034 0.0022972657 
  532000    2.6565073  0.023508315    28372.625    255624.53 0.0038074074 -0.0084081985 0.0021615073 
  533000    2.6439283  0.023422623    28372.625    256370.94 0.0051180651 -0.0068191183 0.0014461877 
  534000    2.6458375  0.023445346    28372.625    257062.93 0.0020867232 -0.0038712862 0.00015218097 
  535000    2.6483023  0.023167092    28372.625    257742.19 0.0027320741 -0.0045629947 0.0012921673 
  536000    2.6517352  0.024216637    28372.625    258338.67 0.0037953121 -0.0049191697 0.0049611345 
  537000    2.6515364  0.023234598    28372.625     258823.4 0.0073679813 -0.003427684 0.0045372342 
  538000    2.6573066  0.023179889    28372.625    259300.83 0.0092622871 -0.0039290231 0.0025750369 
  539000    2.6398266  0.023974643    28372.625     259802.4 0.0092026847 -0.0036184736 0.00061059513 
  540000    2.6491344  0.024152575    28372.625    260290.51 0.0079737509 -0.0047100355 0.0038944762 
  541000    2.6596248  0.023429109    28372.625    260693.59 0.0065299619 -0.0063838731 0.0039469703 
  542000    2.6401513  0.023043281    28372.625    260989.05 0.0072148339 -0.0062658663  0.005121968 
  543000     2.644633   0.02360536    28372.625    261185.54 0.0074810673 -0.0053521241  0.002795085 
  544000    2.6468762  0.024242163    28372.625    261194.88 0.0093464737 -0.0017638653 0.0014472397 
  545000    2.6439036  0.023316191    28372.625    261147.64  0.004459516 -0.0025089067 0.00058189223 
  546000    2.6369446  0.023747408    28372.625    261076.22 0.0043505037 0.00040073948 -0.0017352948 
  547000    2.6434141  0.023849294    28372.625    261149.86 0.0034039811 0.0036168033 -0.00099868308 
  548000    2.6461141  0.023515288    28372.625     261290.9 0.0011098615 0.00053706562 0.0007073723 
  549000    2.6445146  0.024031947    28372.625    261373.64  0.001415185 0.0025802711 0.00050379519 
  550000    2.6336895  0.023904688    28372.625    261420.25 0.0008215848 -0.0013043501 -0.00057510993 
  551000    2.6403994  0.023732368    28372.625    261410.27 -0.0014115055 -0.0010344997 -0.00073200182 
  552000    2.6504557  0.023580746    28372.625     261415.3 -0.002560537 -0.0015936147 -0.0037613222 
  553000    2.6389936  0.024245983    28372.625    261469.82 0.00092469952 -0.0021157722 -0.0028857326 
  554000    2.6449021  0.023980204    28372.625    261590.16 0.0013309176 -0.004677122 -0.0015855022 
  555000    2.6434261  0.023862779    28372.625    261650.16 -0.0019335403 -0.0033131284 -0.0026246041 
  556000    2.6495798  0.023928409    28372.625    261835.85 0.0050668404 0.0018657812 -0.00078771597 
  557000    2.6479745  0.023486368    28372.625    262031.29 0.0051100883 0.00021361811 -0.0063114265 
  558000    2.6496154    0.0237434    28372.625    262245.43 0.0058480733 -0.0010475397 -0.0048261245 
  559000    2.6439352  0.023857094    28372.625    262448.57 0.0039684877 -0.0017943967 -0.0074078399 
  560000    2.6377378  0.023473144    28372.625    262606.92 0.0046154942 4.9490111e-05 -0.0048086919 
  561000    2.6071649   0.02622769    28372.625    262689.36 0.0050572009 -0.00096182878 -0.0020509539 
  562000    2.6459271  0.023301091    28372.625    262932.65 0.0026098794 0.0028042576 -0.0059384391 
  563000    2.6389779  0.023615092    28372.625    263175.44 0.0045827944 0.0054276647 -0.0034372824 
  564000    2.6430383  0.023589334    28372.625    263476.06 0.0037217713 0.0036962516 -0.0027911838 
  565000     2.632411  0.024652761    28372.625    263838.91 0.0040756951 0.00029223045 0.0018964914 
  566000    2.6481649  0.023902112    28372.625    264191.79 0.0064289765 0.0024295474 0.0014229751 
  567000    2.6414563  0.023711122    28372.625    264450.57 0.0089266573 0.0064327463 -0.0019341148 
  568000     2.652579  0.023751512    28372.625    264738.25 0.0076684819 0.0037905579 0.00057417388 
  569000    2.6542505  0.023899143    28372.625    264946.06 0.0037045193  0.005875923 0.0025285771 
  570000    2.6427777  0.023477402    28372.625    265305.07 0.0042924403 0.0036835639 0.00091344821 
  571000    2.6577414  0.023915584    28372.625    265843.33 0.0040858647 0.0023704724  0.003270828 
  572000    2.6445053  0.023066144    28372.625    266360.12 0.0055109428 -0.00044673113 0.0026807574 
  573000    2.6446199  0.024020737    28372.625    266821.18 0.0029704891 -0.0015834501 0.0036141543 
  574000    2.6551757   0.02314138    28372.625    267373.62 0.0022218776 0.0013186433 0.0015011505 
  575000    2.6314801  0.024920878    28372.625    267984.89 0.0062005371 0.0032888274 0.0053127088 
  576000    2.6396764  0.024380378    28372.625    268570.87 0.0018730708 -0.0022370055 0.0032557839 
  577000    2.6457171  0.024248214    28372.625     269115.3 0.0028245373 -0.0012077906 0.0028279604 
  578000    2.6473487  0.023879737    28372.625     269702.6 1.5244451e-05 -0.0047874684 0.0057129954 
  579000    2.6615121  0.023506209    28372.625    270421.71 0.00024675628 -0.005737818 0.0032722373 
  580000    2.6461563  0.023164965    28372.625    271187.75 -0.00038391505 -0.0062806534 0.0020302302 
  581000    2.6355443  0.024382456    28372.625    271789.72 -0.00075995622 -0.0052288643 0.0028746325 
  582000    2.6476663   0.02365484    28372.625    272304.17  0.001020691 -0.0033411293 -0.0014469634 
  583000    2.6447344  0.023717053    28372.625    272865.84 0.00091304797 -0.0050412834 0.00093530814 
  584000    2.6500223  0.023885912    28372.625    273363.42 -0.001590685 -0.0040381513 0.0016222372 
  585000    2.6479067  0.023296717    28372.625    273832.67 0.0013659516 -0.0075046945 -0.00015388402 
  586000     2.641739  0.023445394    28372.625    274160.55 0.00089459561 -0.0081462525 0.00067811232 
  587000    2.6370093  0.023191084    28372.625    274449.16 0.00077349534 -0.010053203 0.00072566228 
  588000    2.6338795    0.0234063    28372.625    274611.49 0.0033079034 -0.0084512569 -0.0023291543 
  589000    2.6529094  0.023508469    28372.625    274765.47 0.0020212033 -0.010132881 -0.0023364774 
  590000     2.642448  0.023510012    28372.625    275028.34 0.0045310004 -0.010057484 -9.267526e-05 
  591000    2.6472818  0.023940963    28372.625    275377.66  0.001899612 -0.0058495001 -0.0021746082 
  592000    2.6461358  0.023339346    28372.625    275735.58 0.0011773821 -0.0045929766 -0.00021404237 
  593000    2.6482746  0.023891872    28372.625    276204.62 -0.00046992986 -0.0015365651 -0.00013710034 
  594000    2.6244576  0.023274703    28372.625    276668.16 -0.0013928426 -0.00046835811 0.00079146022 
  595000    2.6427686  0.023897751    28372.625    277119.96 -0.0012561406 -0.0039184912 -2.3271856e-05 
  596000    2.6453245  0.023548643    28372.625    277553.62 -0.0033174327 -0.0030628039 0.00059702195 
  597000    2.6434062  0.023851717    28372.625    278069.66 -0.0024189048 -0.0024278609 0.00015693562 
  598000    2.6501654  0.023431251    28372.625    278479.94 -0.0032817635 -0.001485967 0.0060245962 
  599000    2.6457262  0.023877418    28372.625    278733.81 -0.0018125631 -0.002367062 0.0044037657 
  600000    2.6400214  0.024054801    28372.625    279026.75 -0.0061938976 -0.0036805819 0.0034296132 
  601000    2.6409667  0.023509359    28372.625    279500.36 -0.0037567272 -0.005669944 0.0056125188 
  602000    2.6437636   0.02350704    28372.625    279794.26 -0.0030106379 -0.0066434844 0.0041580616 
  603000    2.6500331  0.023684837    28372.625    280156.09 -0.0045095204 -0.0022686965 0.0052968789 
  604000      2.64237  0.023551029    28372.625    280497.12 -0.0030957755 -0.00065651675 0.0019353521 
  605000    2.6406468  0.024427413    28372.625    281006.42 -0.00025778462 0.0019004209 0.0019637844 
  606000    2.6462919  0.023120443    28372.625     281498.2 0.0027876342 0.0029021776 0.00055326176 
  607000    2.6567094  0.023502896    28372.625    281970.13 0.0011344514 0.00085330528 -0.00016749778 
  608000    2.6281009   0.02488923    28372.625    282327.18  0.007383481 0.0032931936 -0.0024708802 
  609000    2.6492104   0.02398751    28372.625    282555.22 0.0024672292 0.00053485186 -0.0032078708 
  610000    2.6623894  0.023732768    28372.625    282827.04 0.0050397899 0.0015727833 -0.00046825509 
  611000    2.6406903  0.024227335    28372.625    283161.48 0.0067763833 0.0013428431 -0.0044270535 
  612000    2.6464379  0.023185517    28372.625    283493.09  0.002674725 0.0011624488 -0.0021252669 
  613000    2.6402528  0.023840217    28372.625    283595.39  0.001264756 0.0034717814 0.00077275633 
  614000    2.6520399  0.023218285    28372.625    283684.35 -0.0026272465 0.0067606346  0.002020818 
  615000    2.6409572  0.023704017    28372.625    283737.37 -0.0041625659 0.0048646849  0.003566428 
  616000    2.6473841  0.024534545    28372.625    283778.75 -0.0059166798 0.0018802895 0.0013708247 
  617000    2.6556057  0.023515313    28372.625    283864.76 -0.0041878607 0.0010842238 0.0056394252 
  618000    2.6270845  0.025002852    28372.625    283949.21 -0.0031417875 0.0026614725 0.0021683804 
  619000    2.6539246  0.022994386    28372.625    284093.03 -0.0033877921 0.0036751056 0.0015056273 
  620000    2.6463938  0.023956999    28372.625    284313.22  -0.00210749 0.0038408941 0.0039835856 
  621000    2.6458952  0.023858716    28372.625    284529.62 0.0013521307 0.0020820881 -0.00019808117 
  622000     2.639628  0.024341499    28372.625    284804.03 0.00038275882 0.0050120136 -0.00086366735 
  623000    2.6555608  0.023459567    28372.625    285130.51 0.0020055108 0.0049514062 0.00042704603 
  624000    2.6492959  0.023414488    28372.625     285594.2 0.00023626189 0.0038720293 -0.0020666208 
  625000    2.6485819   0.02339073    28372.625     286046.3 -0.00071022906 0.0013778666 0.0019340356 
  626000    2.6422491  0.023921205    28372.625    286410.18 0.00081319632 0.0023066021 -0.00048203499 
  627000    2.6429751  0.023188059    28372.625    286837.76 -0.0021993767 0.0025184146 -0.0036600092 
  628000    2.6535212   0.02407606    28372.625    287314.67 0.0030462146 0.00081721898  -0.00502367 
  629000    2.6524055  0.023020792    28372.625    288030.53 0.0018983529 0.00053244402 -0.0083795367 
  630000    2.6567856  0.022991683    28372.625    288647.29 0.0029427497 0.00032602703 -0.0089292534 
  631000    2.6401743  0.023876046    28372.625    289279.34 0.00081810436 0.0015351337 -0.0080419887 
  632000    2.6466589  0.023691364    28372.625    289949.99 0.0068818836 -0.0007966506 -0.0074498409 
  633000    2.6448932   0.02439432    28372.625     290566.6 0.0064659872 -0.0011703733 -0.0062977295 
  634000    2.6329623  0.024581421    28372.625     291127.6   0.01093583 -0.0020572875 -0.0048193396 
  635000    2.6423793  0.023720635    28372.625    291674.04 0.0096717374 -0.0018264642 -0.0042499907 
  636000    2.6471164   0.02338787    28372.625    292224.32 0.0058105758 -0.0030420226 -0.0034261041 
  637000    2.6404772  0.023554119    28372.625    292798.25 0.0032461532 -0.0037497828 -0.0013635497 
  638000    2.6368704  0.024822093    28372.625    293418.68 0.0046339484 -0.005076066 0.00023033235 
  639000    2.6498953  0.023437031    28372.625    293997.52 0.0037767207 -0.0061299716 0.0016975668 
  640000    2.6494571  0.023452371    28372.625     294611.9 0.0029893924  -0.00496468 0.00093872304 
  641000    2.6455957    0.0235881    28372.625    295147.77 0.0048601637 -0.0026311496 0.0032909673 
  642000    2.6314111   0.02544739    28372.625    295738.06 0.0054113558 -0.0046470329 0.0050847987 
  643000    2.6507461  0.023844112    28372.625    296426.85 0.0018879837 -0.0079797281 0.0022344726 
  644000    2.6530311  0.024091013    28372.625    297100.86 4.2389228e-05 -0.0030177052 0.00046448636 
  645000    2.6462003  0.023727035    28372.625    297745.22 0.0016946814 -0.0052579398 0.00015812494 
  646000    2.6496845  0.023579541    28372.625    298395.66 0.0049476051 -0.0022197476  0.001229262 
  647000    2.6616612  0.023186089    28372.625    298787.74 0.0036713319 -0.0032271353 0.0059559427 
  648000    2.6455697  0.024084751    28372.625    299119.92 0.0050782295 -0.0029098836 0.0052211698 
  649000    2.6394014  0.023826167    28372.625    299411.23 0.0036788646 -0.0035692588 0.0013090619 
  650000     2.638247  0.023667224    28372.625    299778.07 0.0043260372 -0.00065772609 0.0018570315 
  651000    2.6427416  0.023370992    28372.625    300351.33 0.0044044058 -0.0029076601 0.00059743851 
  652000    2.6577056  0.023315964    28372.625    301074.82 0.00092473473 -0.0025134567 -0.001820284 
  653000     2.640856  0.023254985    28372.625    301676.65 -0.000332519 -0.0014467798 -0.0031248577 
  654000     2.644846  0.023510342    28372.625    302265.03 -0.0012333743 -0.0023778929 -0.0043196482 
  655000    2.6508438  0.023594885    28372.625    303012.38 0.00023306199 -0.005307082 -0.0059985876 
  656000    2.6462554  0.023915076    28372.625    303846.57 -4.5289721e-06 -0.0036583845 -0.0086419089 
  657000    2.6458506  0.023521593    28372.625    304730.82 -0.0013277822 -0.0023290398 -0.0062195153 
  658000    2.6544127  0.023763851    28372.625    305612.99 0.00029408156 -0.0010573856 -0.0032421378 
  659000    2.6582997  0.024230686    28372.625    306574.47 0.0044152484 -7.5635601e-05 -0.0031889511 
  660000    2.6528239  0.023186753    28372.625     307357.3 0.0011124447 -0.0021223016 -0.0054477823 
  661000    2.6424512  0.023666919    28372.625    308094.29 0.0029154627 -0.00097113835 -0.0010755568 
  662000    2.6569713  0.023713108    28372.625    308844.96 0.0049285048 -0.0021914696 -0.0025054733 
  663000    2.6454402    0.0238224    28372.625    309532.24 0.0074446566 0.00062283271 -0.0043159141 
  664000    2.6525815  0.023727819    28372.625     310214.7 0.0063289157 -0.001118816 -0.0041916774 
  665000    2.6547397  0.023545084    28372.625    311016.37 0.0040232757 0.00042697537 -0.0043363809 
  666000    2.6535924  0.023158125    28372.625    311910.46 0.0038662914 -0.0012836114 -0.0061986254 
  667000    2.6426943  0.023796818    28372.625    312790.19 0.00093529726 -0.0015466001 -0.0047352403 
  668000    2.6676362  0.023124184    28372.625    313657.03 0.0016824856 -0.003878361 -0.0026734414 
  669000    2.6387179  0.024174599    28372.625    314537.61 0.0023876042 -0.0028468677 -0.00047390452 
  670000    2.6521169  0.023351123    28372.625    315121.36 0.0019334732 0.00085856488 -0.0028418888 
  671000    2.6411808  0.023265437    28372.625    315755.34 0.00082403802 0.0018168431 -0.0015245563 
  672000    2.6512264  0.023969391    28372.625    316398.89 0.00097825015 -0.0012837146 -0.00071913011 
  673000    2.6450639  0.024301489    28372.625    316977.54 -0.00046569242 -0.0033610165  0.001091723 
  674000    2.6436458  0.023247191    28372.625    317557.14 -0.00067477462 0.0005661014 -0.0024771991 
  675000    2.6544119  0.024721938    28372.625    318070.59 0.0002771578 0.00083438908 -0.0014382571 
  676000    2.6539228  0.023606097    28372.625    318762.18 0.0041942643 -0.0023916178 -0.0022730693 
  677000    2.6473903  0.023146623    28372.625    319450.24 0.0021840591 -0.0035550502 -0.004975915 
  678000    2.6288602  0.024427735    28372.625    320122.07 0.0046899702 -0.0027455715 -0.0047643725 
  679000    2.6464668   0.02397452    28372.625    320774.82 0.0049512206 -0.0037788498 -0.0072477847 
  680000    2.6426895  0.023327572    28372.625    321565.18 0.0021213818 -0.0014431752 -0.0075876692 
  681000    2.6331237  0.025025796    28372.625     322269.3 0.0039462426 0.0027428745 -0.0055580414 
  682000    2.6425269  0.024161243    28372.625    323080.03 0.0051738366 0.00099755759 -0.0045531741 
  683000    2.6342564  0.026123979    28372.625    323837.65  0.007982906 -0.0026244567 -0.0036571471 
  684000    2.6500723  0.023783817    28372.625    324393.42 0.0020841043 -0.00067884998 -0.0056808619 
  685000    2.6504387  0.024076687    28372.625    324928.01 0.0035337192 0.0012099693 -0.0036649432 
  686000       2.6414  0.023550425    28372.625    325490.79 0.0053692742 -0.0011317263 -0.0031732957 
  687000    2.6379756  0.023344289    28372.625    326144.92 0.0048482733 -0.00058262899 -0.0059355459 
  688000    2.6499015  0.023813658    28372.625    326856.73 0.0046610618 -0.0013701791 -0.0037779074 
  689000    2.6396501   0.02514715    28372.625    327442.26 0.0050025779 -0.0025529717 -0.0010889835 
  690000    2.6524454  0.023351299    28372.625    328183.36 0.0066673628 -0.0044709808 -0.0021149095 
  691000     2.632629  0.023869575    28372.625    328876.56 0.0062413932 -0.0011207778 -0.0028538714 
  692000    2.6380989   0.02391844    28372.625    329547.12 0.0038791151 -0.0016513115 -0.00085897145 
  693000    2.6185874  0.025128942    28372.625    330295.66 0.0035061639 0.0035373507 0.00013279382 
  694000    2.6478621  0.023950825    28372.625    331134.46 0.0054650892 0.0021417352 0.0012180581 
  695000    2.6549012  0.023496926    28372.625    331920.72 0.0046713891 0.0021964531 -0.0015698795 
  696000    2.6426291   0.02307327    28372.625    332639.13 0.0048668797 0.0011053024 -0.0015015316 
  697000    2.6553705  0.023703624    28372.625    333431.25 0.0043557912  0.003436708 -0.0044670475 
  698000    2.6578845  0.023567448    28372.625    334134.46 0.00033217148 -0.00014082619 -0.0029744169 
  699000    2.6480077  0.023481689    28372.625    334890.12 0.0022675373 0.0047050446 -8.9885155e-05 
  700000      2.62429  0.024429804    28372.625    335513.68 0.0010146921 0.0031377226 0.0018275864 
  701000    2.6536004  0.023234934    28372.625    336041.76 0.0022498904  0.002980992 0.0014155352 
  702000    2.6437921  0.023659043    28372.625    336461.04  0.004008511 0.0023269861 -0.00028852502 
  703000    2.6408859  0.023858068    28372.625    336717.24 0.0042309222 -0.0042752795 -0.0014978313 
  704000    2.6371582  0.023373663    28372.625    336926.11 0.0020032656 -0.0022507783 -0.0014635295 
  705000    2.6466671  0.023446246    28372.625    337256.15 0.0031839211 -0.00074896406 0.0011042683 
  706000    2.6569668  0.023995846    28372.625    337705.88 0.0059707938 -0.0016651431 0.0006441382 
  707000    2.6569994  0.023236948    28372.625     338212.4 0.0043900849 0.00073648153 -0.00042096077 
  708000    2.6492561  0.023222074    28372.625     338757.1   0.00397827 0.00095486124 -0.00060828175 
  709000    2.6386065  0.023500045    28372.625    339277.72 0.0017491705 -0.00046282616 -0.00079260463 
  710000     2.637177  0.023656135    28372.625    339763.34 0.0018376098 0.0021558296 -0.0020146808 
  711000    2.6365879  0.023745367    28372.625     340286.6  0.004577589 0.0022831252 -0.00071009627 
  712000    2.6349364  0.023119532    28372.625    340930.02 0.0029668901 -0.00024435983 0.0016848924 
  713000    2.6479303  0.023285792    28372.625    341634.48 0.0025664781 -0.002199883 0.00077008769 
  714000    2.6470278  0.023302877    28372.625     342166.7 0.0012183532 -0.0031959793 0.00043657557 
  715000    2.6351714  0.024166551    28372.625    342565.42 -0.00021111967 0.00022687871  0.002792755 
  716000    2.6541663  0.023322789    28372.625    342965.47  0.000517908 0.00037122216 0.0019428248 
  717000     2.639282  0.024186947    28372.625    343357.57 0.0042489573 0.00014362176 -0.0016813967 
  718000    2.6450915  0.023358491    28372.625    343663.85 0.00089186408 0.0018665379  0.002613625 
  719000    2.6496493  0.023353948    28372.625    343973.94 0.00080229075 0.0023539263 0.0043215195 
  720000    2.6440828   0.02402887    28372.625    344288.33 -0.00079634185 0.0013475572 0.0063092354 
  721000    2.6549147  0.024320589    28372.625       344670 0.00012961484 0.00087821502 0.0043516326 
  722000      2.63897  0.023897512    28372.625    345110.47 -0.0037888693 -0.0016457856  0.004050202 
  723000    2.6464699  0.023397185    28372.625     345402.8 -0.00075619959 0.0017071331 0.0036314294 
  724000    2.6467445  0.023453826    28372.625    345709.15 0.00076957518 0.0046927145 0.0041855669 
  725000    2.6399109  0.023407151    28372.625    346098.46 -0.00079241914 0.0062409808 0.00053076776 
  726000    2.6452742  0.023496396    28372.625    346540.15 -0.0014408627 0.0055360638 0.0033179311 
  727000    2.6495981  0.023051881    28372.625    346786.62 -0.0012853936 0.0041894663 0.0038977508 
  728000     2.634234  0.023546181    28372.625    346969.99 -0.0034214118 0.0048511863 0.0024067051 
  729000    2.6455792  0.023461944    28372.625    347408.43 0.00073652017 0.0010536676 0.0032189602 
  730000     2.650627  0.023286042    28372.625    347906.19 -0.00068173896 0.0016060586 0.0010858758 
  731000    2.6263775  0.024354963    28372.625    348262.91 -0.0014623055 -0.00025143391 0.00063771986 
  732000    2.6537442  0.023127006    28372.625    348715.15 -0.0011286563 0.0055762833 0.0047011701 
  733000    2.6381365   0.02312941    28372.625    349129.98 -0.0021431813 0.0044280994 0.0029101417 
  734000     2.658134  0.023215821    28372.625       349566 0.00048473053 0.0053261043 5.4885085e-05 
  735000    2.6487439  0.023683536    28372.625    350068.43 -0.001150693 0.0028885345 0.0017666002 
  736000    2.6576737  0.023214886    28372.625    350444.84 -0.0026808687 0.0030849728 0.0020543075 
  737000    2.6508591  0.023380952    28372.625     350861.4 -0.001827055 0.0056153372 0.0017118884 
  738000    2.6379486  0.023364439    28372.625    351366.67 0.0012090004 0.0040751972 0.0019109756 
  739000    2.6460147  0.023253319    28372.625    351952.84 -0.0018859008 0.0019831207  0.002934815 
  740000    2.6422343  0.023257559    28372.625    352487.93 -0.00097128079 -0.0019577787 0.0046169708 
  741000     2.649327  0.023804491    28372.625    352930.13 -0.0017290348 -0.0035264515 0.0018887125 
  742000    2.6504284  0.023311865    28372.625    353293.95 -0.00096566205 -0.0040093817 0.0033091876 
  743000     2.658434  0.023480645    28372.625    353769.68 -0.00064208304 -0.0022328277 0.0033878355 
  744000    2.6576067  0.023169993    28372.625    354334.39 0.00082374921 -0.0014903665 0.0046327524 
  745000    2.6321977  0.024634319    28372.625    354945.39 -0.00038660505 -0.001670739 0.0057867134 
  746000    2.6536234  0.023231698    28372.625    355569.27  -0.00129766 -0.0029097186 0.0045019029 
  747000    2.6431502  0.023656769    28372.625    356230.54 -0.0038620593 -0.0015446372 0.0047023527 
  748000     2.664576  0.023041392    28372.625    356925.18 -0.0042438877 7.5862627e-05 0.0053307815 
  749000    2.6449612  0.023356079    28372.625    357622.53 -0.0021809944 -6.0514984e-05 0.0045996231 
  750000     2.651082  0.024227942    28372.625    358191.84 -0.004009728 -0.0029485099 0.0013943006 
  751000    2.6652189  0.023171838    28372.625    358655.01 0.0012554069 -1.1840133e-05 0.0015455892 
  752000    2.6500134  0.023274831    28372.625    359239.36 0.00064360642 -0.0018494948 -0.00022501098 
  753000    2.6541496  0.023674661    28372.625    359811.65 0.00033121306 -0.003130666 0.00046208319 
  754000    2.6390763  0.023680192    28372.625    360279.51 -0.00068761206 -0.0021990672 5.8092289e-05 
  755000    2.6464882  0.023706158    28372.625    360830.01 -0.00064857781 -0.0022800039 -0.0019792689 
  756000     2.641047  0.023684028    28372.625    361280.07 -0.00022287537 -0.003812798 -0.0021241828 
  757000    2.6508845   0.02387156    28372.625    361574.74 0.00036282438 -0.0096116326 -0.00062860879 
  758000    2.6493348  0.024368983    28372.625    361832.35 0.0031751716 -0.0071949872 -0.003760441 
  759000    2.6443883  0.023690443    28372.625    362191.81 0.00021527311 -0.0059329396 0.00044355384 
  760000    2.6466841  0.023340873    28372.625    362612.85 0.0031363076 -0.0020968164 -0.0010371408 
  761000     2.639707  0.023709302    28372.625    363085.19 0.0049842059 -0.0041760195 -0.0012110307 
  762000    2.6420168  0.023484183    28372.625       363659 0.0043386515 -0.0024190255 0.0024567771 
  763000    2.6488672  0.023646419    28372.625    364302.91 0.0026585753 -6.111171e-05 0.0041883397 
  764000    2.6594437  0.023349173    28372.625    364807.42 0.0017102846 -0.0012882839 0.0041646883 
[...]
 1844000    2.6443372  0.023819876    28372.625    832609.98 0.00013352368  -0.00448452 -0.0043623773 
 1845000    2.6457286  0.023533533    28372.625     832987.6 -0.00031760471 -0.004412257 -0.002641318 
 1846000    2.6449989  0.023624779    28372.625    833316.68 0.00069715955 -0.0028422431 -0.0011469336 
 1847000    2.6385954  0.023278757    28372.625    833557.73 0.0015613722 -0.0029460789 -0.00015059843 
 1848000    2.6427988  0.023701266    28372.625    833729.32 0.00054533115 -0.00011437652 -0.0016732687 
 1849000    2.6497332  0.023912307    28372.625    834009.19 0.00016153769 -0.0031300428 -0.00069916559 
 1850000    2.6370023  0.023251536    28372.625    834242.51  0.001326435 -0.0057415237 -0.00011855912 
 1851000     2.648576  0.023645826    28372.625    834345.88   0.00070187 -0.0050326066 0.0021311443 
 1852000    2.6476192  0.023778611    28372.625    834575.77 -0.0035038714 -0.0053869865 0.0012618481 
 1853000    2.6592003  0.023376792    28372.625    834841.55 -0.0016818422 -0.0052540203 0.0022160889 
 1854000     2.655229  0.023550643    28372.625    834965.78 -0.0018967935 -0.0036669424 -0.00021140802 
 1855000    2.6392157  0.023348529    28372.625    835189.27 -0.0018995219 -0.0048325036 -0.00067506045 
 1856000    2.6155469  0.024487611    28372.625    835612.57 0.00049428356 -0.0065061819 0.0031273835 
 1857000    2.6446328  0.023262155    28372.625    835988.38 0.0025487474 -0.0064719782  0.001183333 
 1858000    2.6607149  0.023327152    28372.625    836455.29 0.0031899438 -0.0039407969 -0.00057505386 
 1859000     2.634716  0.024334154    28372.625    837022.51   0.00578029 -0.0066695549 9.3088049e-05 
 1860000    2.6536394  0.023687687    28372.625    837396.08 0.0047079173 -0.0065223424 0.0022126516 
 1861000    2.6490584  0.023713642    28372.625     837584.5 0.0026340468 -0.0031432418 0.0028446241 
 1862000    2.6565886  0.023756361    28372.625    838043.61 0.0041606904 -0.004572768 0.0017646084 
 1863000    2.6425275  0.023895846    28372.625    838467.44  0.001687322 -0.0033821197 0.0044302313 
 1864000    2.6495352  0.023669956    28372.625    838685.76 0.0039237041 -0.0078656252 0.0058349614 
 1865000     2.642816  0.023699479    28372.625    838861.36 0.0046735942 -0.0055214214 0.0023080242 
 1866000     2.654012  0.023549969    28372.625    838901.49   0.00543696 -0.0024149819 0.0039697676 
 1867000     2.657694  0.023374165    28372.625    838840.04 0.0039750621 -0.0024792772 0.0017086847 
 1868000    2.6491825  0.023563261    28372.625    838909.65 0.0036978473 -0.0017215693 0.0036002123 
 1869000    2.6360438  0.024962109    28372.625    839145.65  0.002700817 -0.0026924206 0.0039417085 
 1870000    2.6460813  0.023082688    28372.625    839549.21 0.0022094587 -0.00073005308 0.0019395725 
 1871000    2.6448396  0.023786641    28372.625     839897.3 0.0018819372 -0.0026683617 0.0019639673 
 1872000    2.6495125  0.023467369    28372.625    840370.24  0.002490585 0.0012544706 0.0018615866 
 1873000    2.6365959  0.023604975    28372.625    840848.26 -0.0027741981 0.0021055697 0.0045660305 
 1874000    2.6500621  0.024310469    28372.625    841183.41 -0.0071407093 0.0025642114 0.0040320699 
 1875000    2.6421276  0.024592485    28372.625    841608.47 -0.0081022939 -0.0022799874  0.007519167 
 1876000    2.6456377  0.023904957    28372.625    842015.95 -0.0012330425 -0.00047993364 0.0044488317 
 1877000    2.6344775  0.024218755    28372.625     842237.2 0.00063554687 -0.0040490047 0.0050537784 
 1878000    2.6449501  0.023485188    28372.625    842652.87 -0.00063447879 -0.003395856 0.0050756386 
 1879000    2.6467235  0.023661014    28372.625    843315.12 -0.0015052814 -0.0022659307 0.0036348287 
 1880000     2.645254  0.023712106    28372.625    843986.54 -0.0038992333 -0.0025903994 0.0051196286 
 1881000    2.6438659  0.024192411    28372.625    844654.56 -0.0013445058 -0.0016088357 0.0018506496 
 1882000    2.6516497  0.023388205    28372.625    845384.29 -0.0023703169 -0.0062252828 -0.0020656209 
 1883000    2.6476423   0.02360135    28372.625    846005.73 -0.0018726156 -0.0041479431 0.00016575193 
 1884000    2.6466969   0.02427402    28372.625    846673.91  0.000323176 -0.0044812469 0.00025544386 
 1885000    2.6584655  0.024265299    28372.625    847331.77 -0.0023764685 -0.0030924529 -0.002732008 
 1886000    2.6416231  0.024110739    28372.625    847918.96 -0.00084300218 -0.0025389325 -0.00040063644 
 1887000    2.6408584  0.023632014    28372.625    848501.23 -0.00041004817 -0.004990862 -0.0033997916 
 1888000    2.6621137  0.023684603    28372.625    849163.51 -0.0038480057 -0.0046163562 0.00062766101 
 1889000    2.6441488  0.023644658    28372.625    849797.64 -0.0021034772 -0.007009779 -0.0018310477 
 1890000    2.6190532  0.025063034    28372.625    850319.98 -0.0017443225 -0.0083137822 0.0021247199 
 1891000    2.6483339  0.023199975    28372.625    850759.39 0.00016861074 -0.00059639649 -0.0016303508 
 1892000    2.6588289  0.023682877    28372.625    851147.55 -0.00021611445  0.001170126 -0.0021549834 
 1893000    2.6351556  0.024287725    28372.625    851656.81 -0.003003867 -0.00013128435 -0.00094149602 
 1894000    2.6345148  0.023744914    28372.625    852132.94 -0.0020268081   0.00128851 0.00094434418 
 1895000    2.6474862  0.023622307    28372.625    852412.06 -0.0019090982 0.0020765307 -0.002779509 
 1896000     2.640824  0.023667177    28372.625    852430.28 -0.0017762356 0.0010529568 -0.0030834182 
 1897000    2.6429009     0.023178    28372.625    852313.01 -0.0023144668 0.0035561832 -0.0044624538 
 1898000    2.6381936  0.023953773    28372.625    852202.94 0.00065833904 0.0038927504 -0.0040137063 
 1899000    2.6417886  0.023567763    28372.625    852152.76 0.0028237501 -0.0003760052 -0.0064078857 
 1900000    2.6447825  0.023291884    28372.625    852325.56 0.0016296773 -0.0017118848 -0.0072544192 
 1901000    2.6468735  0.024284614    28372.625    852356.48 0.0004411475 -0.00084603161 -0.0061112748 
 1902000    2.6443482  0.024364232    28372.625    852249.69  0.002671226 -0.0016479075 -0.0059086368 
 1903000    2.6437659  0.023299008    28372.625     851973.9 0.0023442508 -0.0021656606 -0.0049558466 
 1904000    2.6494768  0.023628825    28372.625    851668.22 0.0030918325 -0.0038825516 -0.0075567554 
 1905000    2.6428576   0.02458675    28372.625    851530.09 -0.00086101265 -0.004625671 -0.0028101337 
 1906000    2.6376528   0.02451478    28372.625    851544.39 -0.00083104069 -0.0047037279 -0.0044132073 
 1907000    2.6175789  0.025294389    28372.625    851448.85 -0.0017322726 -0.0068509092 -0.0022311976 
 1908000    2.6512114  0.023745509    28372.625     851498.2 0.0014767468 -0.0042139707 -0.0052805246 
 1909000    2.6374051  0.023390494    28372.625    851666.01 0.0022616007 -0.0063097746 -0.0055928833 
 1910000     2.645837  0.023447351    28372.625    851832.56 -0.00016742532 -0.0087861368 -0.0060750927 
 1911000    2.6383374  0.023575174    28372.625    852192.04 -0.0013474752 -0.0073298412 -0.0028871396 
 1912000    2.6629195  0.023505046    28372.625    852608.73 -0.0027171156 -0.0045241954 -0.003575523 
 1913000    2.6442393  0.023227147    28372.625    853008.11 -0.0024330646 -0.0057050059 -0.0028356563 
 1914000    2.6465303  0.024170672    28372.625    853662.06 -0.0057403702 -0.00070227145 -0.0036377765 
 1915000    2.6336672  0.023695113    28372.625    854189.86 -0.0051694427 -0.0034348216 -0.0053210317 
 1916000     2.641285  0.023333009    28372.625    854715.34 -0.0051620483 -0.005009519 -0.0041334226 
 1917000    2.6402557  0.023142215    28372.625    855377.45 -0.0046669992 -0.0020419562 -0.0035281017 
 1918000    2.6521394  0.023288666    28372.625    856150.53 -0.0043896179 -0.0038107294 -0.0039496661 
 1919000    2.6267926   0.02517811    28372.625    856855.55 -0.0022064913 0.0018151542 -0.0038508589 
 1920000    2.6340336  0.024830475    28372.625    857554.21 0.0014948153 -0.0045042848 -0.0027688654 
 1921000    2.6476284  0.023303131    28372.625    857997.21 0.0015987238 -0.0066450909 -0.0038512402 
 1922000    2.6384745  0.023573712    28372.625    858441.38 0.0020631311 -0.006831716 -0.0023432369 
 1923000    2.6482789  0.023384744    28372.625    858632.16 0.0039243928 -0.0048224513 0.00030065068 
 1924000    2.6590139  0.023218883    28372.625     858947.7 0.0010178955 -0.0034110739 0.0029619097 
 1925000    2.6460155   0.02354754    28372.625    859259.27 0.0025253862 -0.004931235 -0.00049020919 
 1926000     2.651107  0.023359391    28372.625    859650.01 0.0051718444 -0.003951993 -8.6988904e-05 
 1927000    2.6463288  0.023568606    28372.625       859847 0.0040404801 -0.0025440561 -0.0011407246 
 1928000    2.6433332  0.024424696    28372.625    860197.06 0.0003471411 0.0021086225 0.0011639256 
 1929000    2.6481252  0.023083027    28372.625     860700.4 -0.00056664401 0.00065081035 -0.00093179547 
 1930000    2.6476938  0.023429157    28372.625    861409.22 9.7913279e-05 0.0033181416 -0.001028223 
 1931000      2.65473  0.023565807    28372.625     862045.5 -0.00078706554 -0.00084303497 -0.0035583854 
 1932000     2.635975  0.023776712    28372.625    862728.63 -0.0010612063 0.00080940902 -0.0044684029 
 1933000    2.6470277  0.023050019    28372.625    863559.04 0.00092553605 -0.001113258 -0.0055555755 
 1934000    2.6458869  0.023628521    28372.625    864449.23 -6.1969866e-05 -0.0045604785 -0.0047935814 
 1935000    2.6455222  0.023375809    28372.625    865327.32  0.001692721 -0.0054772635 -0.0041056718 
 1936000    2.6434447  0.023414188    28372.625    866501.35 0.0021192386 -0.0067715541 -0.0050432402 
 1937000    2.6436995  0.023567198    28372.625     868004.6 0.0028933452 -0.0058785293 -0.0037345008 
 1938000    2.6471564  0.023209108    28372.625    869414.52 0.0016466494 -0.0051845237 -0.004273497 
 1939000    2.6492102  0.023987467    28372.625    870414.28 0.0022795872 -0.0070580794 -0.005971602 
 1940000     2.647859  0.023745062    28372.625    871055.08 -0.00035038251 -0.0069923833 -0.0066720623 
 1941000    2.6266335  0.024433469    28372.625    871568.83 -0.0015657039 -0.0065174153 -0.0046817675 
 1942000    2.6237583  0.024349189    28372.625    872118.82 -0.0009154294 -0.0047375049 -0.0061614343 
 1943000    2.6406023  0.023460564    28372.625    872674.04 0.00043752008 -0.0059803356 -0.0022270456 
 1944000    2.6344158  0.023704575    28372.625    873265.37 0.0011263537 -0.003667592 -0.0010980016 
 1945000     2.643758  0.023255274    28372.625    873791.72 0.00064619719 -0.0013628628 -0.00083541821 
 1946000    2.6459523  0.023468333    28372.625    874401.94 -0.0016818149 -0.0017583301 -0.00065687764 
 1947000    2.6386015  0.023107921    28372.625    875170.47 -0.00075165342 -0.0004424675 -0.0016205069 
 1948000    2.6475052  0.023397243    28372.625    875804.39 0.0014658563 -1.365105e-05 -0.0021459653 
 1949000    2.6386417  0.023286795    28372.625    876574.67 0.0020888813 0.00019099311 0.00059900228 
 1950000    2.6499379  0.023675839    28372.625    877277.34 0.0045239584 0.0013754139 -0.0010377074 
 1951000    2.6475379  0.023146117    28372.625    878040.91 0.0043742403 0.0011458436 0.0033908087 
 1952000    2.6476671  0.023544296    28372.625    878887.73 0.0041074983 0.0026400646 0.0046301904 
 1953000    2.6426229  0.023405242    28372.625    879460.71 0.0020128629 0.0064118979 0.0048340458 
 1954000    2.6455026  0.023197651    28372.625    880072.08 0.0020844311 0.0052995066 0.0065418959 
 1955000    2.6306182   0.02474816    28372.625     880667.4  0.002497125 0.0026773036 0.0091539455 
 1956000    2.6563564  0.023805944    28372.625    880974.08 0.0024799471 0.0023019579 0.0075805994 
 1957000    2.6462543  0.023331602    28372.625    881140.87 0.0036785907 0.0053948634  0.005825542 
 1958000    2.6210358  0.025098457    28372.625    881505.12 0.00093899859  0.002912558 0.00021997713 
 1959000      2.63701  0.023479058    28372.625    881941.27 0.00055213998 0.0061872616 0.0084543106 
 1960000    2.6247474  0.024611856    28372.625    882385.24  0.003131898 0.0049896078 0.0082723422 
 1961000    2.6591557  0.023797988    28372.625    882856.86 0.0015418687 0.0037294612 0.0068936559 
 1962000    2.6545044  0.024128838    28372.625    883348.31 -0.0017681638 0.0023334873  0.004838709 
 1963000    2.6417809   0.02397786    28372.625     883732.6 -0.001562615 0.0081814138 0.0074971041 
 1964000    2.6428857  0.023433611    28372.625    884239.81 -0.002618394 0.0049638677 0.0080986355 
 1965000    2.6487668  0.023464112    28372.625    884764.18 -0.0030270355 0.0051182491 0.0070742107 
 1966000    2.6447188  0.023325162    28372.625    885219.07 -0.0030765763 0.0027941177 0.0082971203 
 1967000     2.640833  0.023445261    28372.625    885786.43 -0.0025896464  0.001715134 0.0049047678 
 1968000    2.6420875  0.024388499    28372.625    886296.55 -0.0068019402 0.00040782117  0.003098052 
 1969000    2.6491055  0.023251315    28372.625    886922.01 -0.0057773865 -0.0010167662 0.0033963321 
 1970000    2.6521181  0.023632682    28372.625    887671.24 -0.0045583157 -0.0046598914 0.0016265947 
 1971000    2.6502438  0.023466878    28372.625    888222.34 -0.0033438568 -0.0058149658 -0.00040942242 
 1972000    2.6546469  0.023450012    28372.625     888762.6 -0.0076384784 -0.0073170023 0.0015551126 
 1973000    2.6317202  0.025509728    28372.625    889188.32 -0.0044236162 -0.014244937 0.0024106605 
 1974000    2.6507312  0.023460311    28372.625    889351.76 -0.0030451254 -0.0038224834 0.0028210055 
 1975000    2.6459367    0.0239853    28372.625    889585.62 -0.006496175 -0.0052173671 0.0034495805 
 1976000    2.6313447  0.023714817    28372.625    889783.62 -0.0049664308 -0.0041307836 0.0019527552 
 1977000    2.6412503  0.024265672    28372.625    889965.96 -0.002580017 -0.0029429942 0.0040792289 
 1978000    2.6578905  0.023435328    28372.625       890421 -0.0037770909 -0.0050487994 0.0040230869 
 1979000    2.6437719  0.024245501    28372.625    890851.83 -0.0008849141 -0.0040229741 0.0035410003 
 1980000    2.6480039  0.023616716    28372.625    891266.32 -0.0021247182 -0.003717527 0.0025102699 
 1981000    2.6489881  0.023454478    28372.625    891752.85 0.0013604784 -0.0049025093 0.0047049365 
 1982000    2.6550013  0.023500419    28372.625    892152.01 0.00075216813 -0.0036659361 0.0014597952 
 1983000    2.6288231  0.024374031    28372.625    892496.83 -0.00081233324 -0.0065041999 0.0026728363 
 1984000    2.6457469   0.02351495    28372.625     892838.2 -0.00051116566 -0.0039234993 0.0035606606 
 1985000    2.6412817  0.023863015    28372.625    893309.37 -0.00077789032 -0.0046776356 0.0024357889 
 1986000    2.6449385  0.023653011    28372.625    893888.52 0.0010479591 -0.0041076783 0.0026509124 
 1987000    2.6468107  0.023483412    28372.625    894339.36 -0.0012486673 -0.0020022982 0.0022591937 
 1988000    2.6318348  0.024798463    28372.625     894671.1 0.0024506733 -0.0071674762 0.0011941191 
 1989000    2.6515843  0.023108684    28372.625     895023.1 -0.0013388306 -0.0022704577 0.0014599368 
 1990000    2.6518032  0.023135638    28372.625    895355.57 -0.0026436258 -0.0006486206 0.0012657231 
 1991000    2.6536534  0.023172152    28372.625     895447.7 -0.0019430766 -0.0026429884 0.0034296583 
 1992000    2.6403022  0.024393459    28372.625    895702.98 -0.0033544461 -0.00083401022 0.0016996617 
 1993000    2.6415524  0.024059013    28372.625    896227.38 0.00071924935 -0.00017737477 0.0043156394 
 1994000    2.6493071  0.023683968    28372.625     896790.2 0.0037474885 -0.0022460364 0.0051822232 
 1995000    2.6548865  0.023959296    28372.625    897152.42 0.0035402125 -0.006213388 0.0051910201 
 1996000    2.6433435  0.023773762    28372.625    897548.84 0.0018210065 -0.0043814045 0.0023307179 
 1997000    2.6460817  0.023728738    28372.625    897872.11 0.0031952955 -0.0049451553 0.0046032662 
 1998000    2.6368848  0.023575391    28372.625    898016.15 0.0042370317 -0.0041582561 0.0020758454 
 1999000    2.6321356  0.023904261    28372.625    898356.73 0.0023868147 -0.0014938364 0.0013028287 
 2000000    2.6402063  0.023708152    28372.625    898877.31 0.0010854698 -0.0039215235 -0.00063709546 
Loop time of 729.109 on 1 procs for 2000000 steps with 256 atoms

Pair  time (%) = 10.3192 (1.41532)
Neigh time (%) = 12.491 (1.71318)
Comm  time (%) = 5.20021 (0.713227)
Outpt time (%) = 0.185187 (0.0253991)
Other time (%) = 700.913 (96.1329)

Nlocal:    256 ave 256 max 256 min
Histogram: 1 0 0 0 0 0 0 0 0 0
Nghost:    176 ave 176 max 176 min
Histogram: 1 0 0 0 0 0 0 0 0 0
Neighs:    103 ave 103 max 103 min
Histogram: 1 0 0 0 0 0 0 0 0 0

Total # of neighbors = 103
Ave neighs/atom = 0.402344
Neighbor list builds = 157551
Dangerous builds = 2058
#	run			10000
	unfix			1
	uncompute		myKE
	uncompute		myPE
	uncompute		myStress
	uncompute		flux
	uncompute		myDis
	unfix			JJ

	next seed
	next iseed
jump lmp.in.gk loop_seed
variable iseed loop 10
variable seed index 11111 22222 33333 44444 55555 66666 77777 88888 99999 11112
clear

# Lennard-Jones
#Prepare Geometry---------------------------------------------------------------
units			lj
atom_style		atomic
read_data		lmp.in.x0.1
  orthogonal box = (0 0 0) to (30.5 30.5 30.5)
  1 by 1 by 1 MPI processor grid
  256 atoms
#Initialize Structure-----------------------------------------------------------
#mass           	1  1.0
#group         		Ar type = 1
#LJ Potentials------------------------------------------------------------------
pair_style		lj/cut 2.5
pair_coeff		* * 1.0 1.0
pair_modify          	shift yes
#pair_modify   	tail no

#Variables----------------------------------------------------------------------
#LJ Parameters
variable    	kB 		equal 1.3806504e-23 	# [J/K] Boltzmann
variable	sigma_Ar 	equal 3.4e-10 		# m
variable	eps_Ar		equal 1.67e-21		# J
variable	mass_Ar		equal 6.63e-26		# kg
variable	tau_Ar		equal 2.1423e-12	# s
#thermo Parameters
variable    	T_melt 		equal 300*(${kB}/${eps_Ar})
variable    	T_melt 		equal 300*(1.3806504000000001236e-23/${eps_Ar})
variable    	T_melt 		equal 300*(1.3806504000000001236e-23/1.6699999999999999942e-21)
variable	T_0K		equal 0.00001
variable	T_2_5K		equal 2.5*(${kB}/${eps_Ar})
variable	T_2_5K		equal 2.5*(1.3806504000000001236e-23/${eps_Ar})
variable	T_2_5K		equal 2.5*(1.3806504000000001236e-23/1.6699999999999999942e-21)
variable	T_5K		equal 5*(${kB}/${eps_Ar})
variable	T_5K		equal 5*(1.3806504000000001236e-23/${eps_Ar})
variable	T_5K		equal 5*(1.3806504000000001236e-23/1.6699999999999999942e-21)
variable	T_10K		equal 10*(${kB}/${eps_Ar})
variable	T_10K		equal 10*(1.3806504000000001236e-23/${eps_Ar})
variable	T_10K		equal 10*(1.3806504000000001236e-23/1.6699999999999999942e-21)
variable	T_15K		equal 15*(${kB}/${eps_Ar})
variable	T_15K		equal 15*(1.3806504000000001236e-23/${eps_Ar})
variable	T_15K		equal 15*(1.3806504000000001236e-23/1.6699999999999999942e-21)
variable	T_320K		equal 320*(${kB}/${eps_Ar})
variable	T_320K		equal 320*(1.3806504000000001236e-23/${eps_Ar})
variable	T_320K		equal 320*(1.3806504000000001236e-23/1.6699999999999999942e-21)

variable   	dt 		equal 0.002
variable	quench_rate	equal 1.0
variable	quench_length 	equal 10000
#kappa parameters
variable    	p 		equal 200000 		# correlation length
variable    	s 		equal 5  		# sample interval
variable    	d 		equal $p*$s 		# dump interval
variable    	d 		equal 200000*$s 		
variable    	d 		equal 200000*5 		

#SED parameters
variable	w_step		equal 2^5
variable	w_total		equal 2^16
variable	t_total		equal 2^18
variable	num_ffts	equal ${t_total}/${w_total}
variable	num_ffts	equal 262144/${w_total}
variable	num_ffts	equal 262144/65536

#------------ RUN TEMP ---------------------------------------------------------------------
variable 	T_run 		equal ${T_320K}
variable 	T_run 		equal 2.6455576526946114058
#------------ RUN TEMP ---------------------------------------------------------------------

log 	log_heat_${iseed}.lammps
log 	log_heat_9.lammps
