
#------------ NVE rescale ---------------------------------------------------------------------

	velocity 		all create ${T_run} ${seed} rot yes dist gaussian
	velocity 		all create 2.6455576526946114058 ${seed} rot yes dist gaussian
	velocity 		all create 2.6455576526946114058 11112 rot yes dist gaussian

	fix 			1 all nve
	fix 			2 all temp/rescale 1 ${T_run} ${T_run} 0.01 1.0
	fix 			2 all temp/rescale 1 2.6455576526946114058 ${T_run} 0.01 1.0
	fix 			2 all temp/rescale 1 2.6455576526946114058 2.6455576526946114058 0.01 1.0
	timestep		${dt}
	timestep		0.0020000000000000000416
	thermo_style  		custom step temp press etotal vol
	thermo			1000
	run             	200000
Memory usage per processor = 1.67356 Mbytes
Step Temp Press TotEng Volume 
       0    2.6455577  0.023669049   -1.5687558    28372.625 
    1000    2.6428808  0.020884666    3.0903393    28372.625 
    2000    2.6436353  0.021182119    3.2478501    28372.625 
    3000    2.6466679  0.021172684     3.346042    28372.625 
    4000    2.6525166  0.021096162    3.3928135    28372.625 
    5000    2.6418125  0.023229541    3.4595163    28372.625 
    6000    2.6394631  0.022120787    3.5427717    28372.625 
    7000     2.646059  0.023283348    3.5727225    28372.625 
    8000    2.6417661  0.021829343    3.6373914    28372.625 
    9000    2.6493988  0.022599323    3.7041158    28372.625 
   10000    2.6455577  0.023141228     3.730069    28372.625 
   11000    2.6384039  0.022581256    3.7457362    28372.625 
   12000    2.6519721  0.022840357    3.7898916    28372.625 
   13000    2.6466108  0.023819449    3.8222272    28372.625 
   14000    2.6373213  0.024004776     3.825052    28372.625 
   15000    2.6399429  0.023367539    3.8264491    28372.625 
   16000    2.6490888  0.023347727    3.8776398    28372.625 
   17000    2.6438589   0.02426582    3.8530444    28372.625 
   18000    2.6410636  0.024586623    3.9095505    28372.625 
   19000    2.6453172  0.023706648    3.8936916    28372.625 
   20000    2.6415037  0.023684692    3.8872182    28372.625 
   21000    2.6471518  0.023967389     3.890134    28372.625 
   22000    2.6362495  0.025622632    3.9133226    28372.625 
   23000    2.6491536  0.024189303    3.9174489    28372.625 
   24000    2.6490055  0.023877647    3.9041936    28372.625 
   25000    2.6461991  0.023757534    3.8909788    28372.625 
   26000    2.6517167  0.023690941    3.9099124    28372.625 
   27000    2.6433506   0.02439861    3.9132629    28372.625 
   28000    2.6428515  0.023175569    3.9150225    28372.625 
   29000    2.6394007  0.024141256    3.9060323    28372.625 
   30000    2.6482903  0.024138549    3.9059997    28372.625 
   31000    2.6466852  0.024237991    3.9110674    28372.625 
   32000    2.6524259   0.02334404    3.9278532    28372.625 
   33000     2.652175  0.023308034    3.9286516    28372.625 
   34000    2.6367333  0.023910553     3.899916    28372.625 
   35000    2.6433793   0.02400599    3.8914544    28372.625 
   36000    2.6473713  0.023273281    3.9081956    28372.625 
   37000    2.6454913  0.024605993    3.9248945    28372.625 
   38000    2.6441279  0.023919982    3.9104634    28372.625 
   39000    2.6477612   0.02420212    3.9106464    28372.625 
   40000     2.644543  0.025942951    3.9361675    28372.625 
   41000    2.6423457   0.02394412    3.9197281    28372.625 
   42000    2.6414554  0.023998552    3.9055266    28372.625 
   43000    2.6455577  0.024362562    3.9190604    28372.625 
   44000     2.648941  0.023539756    3.9222095    28372.625 
   45000    2.6479333  0.024014165    3.9131144    28372.625 
   46000    2.6451575   0.02423318     3.916928    28372.625 
   47000     2.643302  0.024716212    3.8996815    28372.625 
   48000    2.6547722  0.023742133    3.9174841    28372.625 
   49000    2.6437722  0.024393061    3.9078159    28372.625 
   50000    2.6388842  0.023875735    3.8934702    28372.625 
   51000    2.6466495  0.025232608    3.9286491    28372.625 
   52000    2.6462612  0.023335853    3.8950139    28372.625 
   53000     2.644884   0.02325301    3.8972774    28372.625 
   54000    2.6550861  0.023751992    3.9290682    28372.625 
   55000    2.6537636  0.023583211    3.9164458    28372.625 
   56000     2.650144  0.023402625    3.9167947    28372.625 
   57000    2.6446368   0.02287984    3.8840899    28372.625 
   58000    2.6459327  0.023396892    3.9193596    28372.625 
   59000    2.6514268  0.023406502    3.9124138    28372.625 
   60000     2.650399  0.023406371     3.917285    28372.625 
   61000     2.644937  0.023124245    3.8883121    28372.625 
   62000    2.6497081   0.02428903    3.9098063    28372.625 
   63000    2.6482389  0.023582862    3.8933941    28372.625 
   64000     2.653886  0.023752687    3.9147616    28372.625 
   65000    2.6416298  0.023624962    3.9014731    28372.625 
   66000    2.6459871  0.023399897    3.8854126    28372.625 
   67000    2.6453761  0.023907996     3.897655    28372.625 
   68000    2.6476944  0.024198913    3.8987078    28372.625 
   69000     2.647642   0.02351984    3.9033605    28372.625 
   70000    2.6394455  0.023934714    3.9046967    28372.625 
   71000    2.6526782   0.02354843    3.9046826    28372.625 
   72000    2.6509017  0.023466022    3.9222941    28372.625 
   73000    2.6438259  0.023789901    3.8924522    28372.625 
   74000    2.6425913  0.024553787     3.906806    28372.625 
   75000     2.645865  0.023797282    3.8931627    28372.625 
   76000    2.6437236  0.025538457    3.9258631    28372.625 
   77000     2.654821  0.023599574    3.9270279    28372.625 
   78000    2.6462776   0.02425264    3.9136805    28372.625 
   79000    2.6519897  0.023457211    3.9201379    28372.625 
   80000    2.6403599  0.024717477    3.9009122    28372.625 
   81000    2.6414828  0.023335078    3.9109823    28372.625 
   82000    2.6465092  0.023325407    3.9003919    28372.625 
   83000    2.6452038  0.023386798    3.8911082    28372.625 
   84000    2.6406248  0.024399306    3.9107394    28372.625 
   85000    2.6399241  0.024513722    3.8981375    28372.625 
   86000     2.650768  0.023144296    3.8973501    28372.625 
   87000     2.651967  0.023896489    3.9125776    28372.625 
   88000    2.6551627  0.023462466    3.9251592    28372.625 
   89000    2.6444661  0.023547616     3.908052    28372.625 
   90000    2.6528792  0.023788036    3.9219575    28372.625 
   91000    2.6493862  0.023399265    3.8935952    28372.625 
   92000    2.6486182  0.023270242    3.9088774    28372.625 
   93000    2.6419703  0.024151128    3.9130372    28372.625 
   94000    2.6406883  0.023414569     3.912011    28372.625 
   95000    2.6512867  0.023236021    3.9121001    28372.625 
   96000    2.6512596   0.02332122    3.9129592    28372.625 
   97000    2.6475228  0.023297701    3.8838971    28372.625 
   98000    2.6483242  0.023696252    3.9172322    28372.625 
   99000      2.64856  0.023649514    3.9018711    28372.625 
  100000    2.6443295  0.023242135    3.9198223    28372.625 
  101000    2.6445699   0.02377033    3.8890547    28372.625 
  102000    2.6485412  0.023418573    3.8866176    28372.625 
  103000    2.6471993  0.023724242    3.9019175    28372.625 
  104000    2.6467158  0.024397573    3.9006494    28372.625 
  105000    2.6468871  0.023458692    3.9090165    28372.625 
  106000    2.6489032  0.023748704    3.8948389    28372.625 
  107000    2.6511315  0.023191069    3.9122949    28372.625 
  108000    2.6457411  0.023397903    3.8999542    28372.625 
  109000     2.639853  0.025363731     3.901396    28372.625 
  110000    2.6479791  0.023216649     3.890144    28372.625 
  111000    2.6465696  0.023297837    3.9078995    28372.625 
  112000    2.6416021   0.02451625    3.9065475    28372.625 
  113000    2.6455577  0.024060644    3.8907768    28372.625 
  114000    2.6424757  0.023639896    3.8939864    28372.625 
  115000     2.653026    0.0235408    3.8781616    28372.625 
  116000    2.6536725  0.024075801    3.8983372    28372.625 
  117000    2.6455577   0.02365673    3.8983106    28372.625 
  118000    2.6376678  0.024019251    3.9024695    28372.625 
  119000    2.6499478  0.023359431     3.923488    28372.625 
  120000    2.6482482  0.024513377    3.9232829    28372.625 
  121000    2.6406595  0.023882913    3.8981252    28372.625 
  122000    2.6478241   0.02321603    3.9166732    28372.625 
  123000     2.643286  0.024438507    3.9014152    28372.625 
  124000    2.6542253  0.023810162    3.9211128    28372.625 
  125000    2.6453489   0.02332908    3.9157635    28372.625 
  126000      2.63817  0.024009845    3.9170098    28372.625 
  127000    2.6385524  0.023224872     3.901058    28372.625 
  128000    2.6479601  0.023536552    3.9012352    28372.625 
  129000    2.6430096  0.024541519     3.913539    28372.625 
  130000    2.6479603  0.023383501    3.9001756    28372.625 
  131000    2.6508538  0.023765514    3.9152065    28372.625 
  132000    2.6509452  0.023738067     3.895724    28372.625 
  133000    2.6477087  0.023849497    3.8946975    28372.625 
  134000      2.64747  0.023917281    3.9238166    28372.625 
  135000     2.653032  0.024144271    3.9067458    28372.625 
  136000    2.6462133  0.024514733    3.9329558    28372.625 
  137000    2.6395878  0.024838994    3.9117787    28372.625 
  138000    2.6494053  0.023176958    3.9142179    28372.625 
  139000    2.6415278  0.024636103     3.914078    28372.625 
  140000    2.6485611  0.023840358    3.9149889    28372.625 
  141000    2.6512202  0.023401817    3.9036406    28372.625 
  142000    2.6457098  0.023470604     3.907256    28372.625 
  143000    2.6517389  0.023505922    3.9035323    28372.625 
  144000    2.6440723  0.023637646     3.907665    28372.625 
  145000    2.6433708   0.02407142    3.9199916    28372.625 
  146000    2.6458864  0.024735148    3.9045007    28372.625 
  147000    2.6467372  0.023411089    3.9114496    28372.625 
  148000    2.6471881  0.023242728    3.9129264    28372.625 
  149000    2.6386948  0.024187645    3.9161987    28372.625 
  150000    2.6512595  0.023594893    3.9095811    28372.625 
  151000    2.6534602  0.023145016    3.9072389    28372.625 
  152000    2.6426069  0.024866037    3.9216075    28372.625 
  153000    2.6450026     0.024637    3.9250572    28372.625 
  154000    2.6431617  0.024254809    3.9098524    28372.625 
  155000    2.6519249  0.023272774    3.9111546    28372.625 
  156000    2.6487041  0.024069198    3.9157855    28372.625 
  157000    2.6384574  0.024332062     3.889863    28372.625 
  158000    2.6454533    0.0237613    3.9082801    28372.625 
  159000    2.6432794   0.02326711    3.8961355    28372.625 
  160000    2.6419993  0.023621669    3.9126378    28372.625 
  161000    2.6501184  0.023356378    3.9144776    28372.625 
  162000    2.6537139  0.023267363    3.9172271    28372.625 
  163000    2.6462407  0.023945337    3.8951741    28372.625 
  164000    2.6411886  0.023094615    3.8818802    28372.625 
  165000    2.6472211  0.024115839    3.9004794    28372.625 
  166000    2.6500806  0.023506755    3.9023774    28372.625 
  167000    2.6536911  0.023707401    3.8908419    28372.625 
  168000    2.6457723  0.023111416     3.892688    28372.625 
  169000    2.6484683   0.02497651    3.8981069    28372.625 
  170000    2.6554126   0.02373045    3.8979498    28372.625 
  171000    2.6392282  0.023614397      3.88934    28372.625 
  172000    2.6506518  0.023218724    3.9188593    28372.625 
  173000    2.6513644  0.023639181    3.9064501    28372.625 
  174000    2.6398461  0.024182463     3.902131    28372.625 
  175000    2.6474227  0.024029781    3.9149264    28372.625 
  176000    2.6452421  0.023634879      3.90127    28372.625 
  177000    2.6537729  0.023782687    3.9160178    28372.625 
  178000    2.6445242  0.024126544    3.8976494    28372.625 
  179000    2.6521467  0.023909739     3.919118    28372.625 
  180000    2.6480008  0.023212524    3.9064235    28372.625 
  181000     2.648166  0.023399411    3.9048478    28372.625 
  182000    2.6473851  0.023885106    3.9047257    28372.625 
  183000    2.6440968  0.023459721    3.9064518    28372.625 
  184000    2.6498817  0.023470953    3.9046623    28372.625 
  185000     2.641153  0.024621129    3.8784229    28372.625 
  186000    2.6487159  0.023357331    3.9123342    28372.625 
  187000    2.6474725  0.023468467    3.9122146    28372.625 
  188000    2.6483658  0.023986535     3.911005    28372.625 
  189000    2.6480793  0.024167371    3.9103473    28372.625 
  190000    2.6514557  0.023704358    3.9136188    28372.625 
  191000    2.6364667  0.023861099    3.8848346    28372.625 
  192000    2.6471697  0.024575933    3.9024071    28372.625 
  193000    2.6450439  0.023270706    3.9181872    28372.625 
  194000    2.6550838  0.023359754    3.9191592    28372.625 
  195000    2.6436434  0.025615408    3.9211897    28372.625 
  196000     2.648393  0.023922628    3.8935659    28372.625 
  197000    2.6484662  0.023426972     3.908891    28372.625 
  198000    2.6515846  0.024153932    3.9268227    28372.625 
  199000    2.6481543  0.023757526    3.8948477    28372.625 
  200000     2.644028  0.023547103    3.9151787    28372.625 
Loop time of 3.61307 on 1 procs for 200000 steps with 256 atoms

Pair  time (%) = 0.835766 (23.1318)
Neigh time (%) = 1.25032 (34.6055)
Comm  time (%) = 0.441616 (12.2227)
Outpt time (%) = 0.00713229 (0.197403)
Other time (%) = 1.07823 (29.8426)

Nlocal:    256 ave 256 max 256 min
Histogram: 1 0 0 0 0 0 0 0 0 0
Nghost:    153 ave 153 max 153 min
Histogram: 1 0 0 0 0 0 0 0 0 0
Neighs:    98 ave 98 max 98 min
Histogram: 1 0 0 0 0 0 0 0 0 0

Total # of neighbors = 98
Ave neighs/atom = 0.382812
Neighbor list builds = 15722
Dangerous builds = 388
#	run             	1000
	unfix 			1
	unfix 			2

#------------ NVE -----------------------------------------------------------------------------

	fix 			1 all nve
	timestep		${dt}
	timestep		0.0020000000000000000416
	thermo_style  		custom step temp press etotal vol
	thermo			1000
	run             	100000
Memory usage per processor = 1.67356 Mbytes
Step Temp Press TotEng Volume 
  200000     2.644028  0.023547103    3.9151787    28372.625 
  201000    2.6351564  0.025300019    3.9151901    28372.625 
  202000    2.6478255  0.024200401    3.9151788    28372.625 
  203000    2.6447084  0.024506621     3.915189    28372.625 
  204000    2.6552381  0.024340659    3.9151904    28372.625 
  205000    2.6475878  0.023717441    3.9151802    28372.625 
  206000    2.6476849  0.024202784    3.9151823    28372.625 
  207000    2.6225851  0.025504966    3.9152378    28372.625 
  208000    2.6573347  0.023187832    3.9151949    28372.625 
  209000    2.6453785  0.023254668    3.9151958    28372.625 
  210000    2.6572132  0.023082508    3.9151862    28372.625 
  211000    2.6493556  0.024127309    3.9151837    28372.625 
  212000    2.6417878  0.024316328     3.915206    28372.625 
  213000    2.6393065  0.025507701    3.9151827    28372.625 
  214000    2.6478288  0.024350679    3.9151727    28372.625 
  215000    2.6307235    0.0243926    3.9151973    28372.625 
  216000    2.6490874  0.023318702    3.9151684    28372.625 
  217000    2.6443105  0.023497836    3.9151595    28372.625 
  218000    2.6477941  0.024034193    3.9151632    28372.625 
  219000     2.645699  0.023351384    3.9151725    28372.625 
  220000    2.6604915  0.023632433    3.9151633    28372.625 
  221000    2.6467481   0.02356198    3.9151723    28372.625 
  222000    2.6529415  0.023957058     3.915151    28372.625 
  223000    2.6489686   0.02357944     3.915161    28372.625 
  224000    2.6582014  0.023402147    3.9151688    28372.625 
  225000    2.6491654  0.023341786    3.9151681    28372.625 
  226000    2.6551903  0.024268334    3.9151639    28372.625 
  227000    2.6498579  0.023267056    3.9151624    28372.625 
  228000    2.6423116  0.024257565    3.9151448    28372.625 
  229000    2.6549468   0.02333117    3.9151602    28372.625 
  230000    2.6471258  0.024405696    3.9151493    28372.625 
  231000    2.6307424  0.024805219    3.9151757    28372.625 
  232000    2.6373929  0.023872792    3.9151516    28372.625 
  233000    2.6522493  0.023643815    3.9151474    28372.625 
  234000    2.6376373  0.024352828    3.9151525    28372.625 
  235000    2.6527697  0.023698784    3.9151417    28372.625 
  236000    2.6496503  0.023466401    3.9151528    28372.625 
  237000    2.6421198  0.023366013    3.9151506    28372.625 
  238000    2.6472786  0.023638326    3.9151506    28372.625 
  239000    2.6457033  0.024008352    3.9151463    28372.625 
  240000    2.6468588  0.023266453    3.9151502    28372.625 
  241000    2.6395534  0.024274122    3.9151599    28372.625 
  242000    2.6508532  0.023399235    3.9151655    28372.625 
  243000     2.638122  0.025193117    3.9151385    28372.625 
  244000    2.6493746  0.023139706     3.915183    28372.625 
  245000    2.6454985  0.023266481    3.9151841    28372.625 
  246000    2.6470817  0.023228748    3.9151923    28372.625 
  247000    2.6509763  0.023663644    3.9151927    28372.625 
  248000    2.6427618  0.023621684    3.9151979    28372.625 
  249000    2.6619578  0.023512271    3.9151918    28372.625 
  250000    2.6499017  0.023906778    3.9152036    28372.625 
  251000    2.6531365  0.023405906     3.915198    28372.625 
  252000    2.6486382  0.023468186    3.9151815    28372.625 
  253000    2.6511848  0.023303961    3.9151986    28372.625 
  254000      2.64871  0.023873582     3.915199    28372.625 
  255000    2.6504078  0.023107838     3.915204    28372.625 
  256000    2.6408208  0.023793195    3.9151944    28372.625 
  257000    2.6588971  0.023382222    3.9151799    28372.625 
  258000    2.6522264  0.023784014    3.9151763    28372.625 
  259000    2.6536238  0.023721102    3.9151747    28372.625 
  260000    2.6429322  0.023968574    3.9151763    28372.625 
  261000    2.6475913  0.023600085    3.9151761    28372.625 
  262000    2.6599776  0.022986648    3.9151764    28372.625 
  263000    2.6529657  0.023950599    3.9151648    28372.625 
  264000    2.6486062   0.02431676    3.9151788    28372.625 
  265000    2.6580218  0.023378406    3.9151801    28372.625 
  266000    2.6524724   0.02430182     3.915186    28372.625 
  267000    2.6629114   0.02379338    3.9151784    28372.625 
  268000    2.6494531  0.023260359    3.9151893    28372.625 
  269000    2.6445497  0.023724355     3.915194    28372.625 
  270000    2.6652268  0.024073334    3.9151802    28372.625 
  271000    2.6477509  0.023622384    3.9151886    28372.625 
  272000    2.6465679  0.023310696    3.9151859    28372.625 
  273000    2.6480208  0.024032898    3.9151706    28372.625 
  274000    2.6522706  0.023157825    3.9151796    28372.625 
  275000    2.6426015  0.023542612    3.9151878    28372.625 
  276000    2.6522999  0.023876097    3.9151691    28372.625 
  277000    2.6591032  0.024094323    3.9151822    28372.625 
  278000    2.6470308  0.023745564    3.9151798    28372.625 
  279000    2.6391926  0.025477627    3.9151884    28372.625 
  280000    2.6599199  0.023694664    3.9151752    28372.625 
  281000    2.6467288  0.023342033    3.9151703    28372.625 
  282000    2.6632798  0.023610521    3.9151688    28372.625 
  283000    2.6510019  0.023601688    3.9151605    28372.625 
  284000    2.6390151  0.024738099    3.9151739    28372.625 
  285000    2.6510684  0.023488536    3.9151753    28372.625 
  286000     2.653578  0.023212969    3.9151726    28372.625 
  287000     2.648007  0.023649471     3.915182    28372.625 
  288000    2.6535161  0.023449557    3.9151729    28372.625 
  289000    2.6458789  0.023836978     3.915167    28372.625 
  290000    2.6523894  0.023930779    3.9151782    28372.625 
  291000    2.6593636  0.023912342    3.9151733    28372.625 
  292000    2.6715752  0.023389238    3.9151705    28372.625 
  293000    2.6566672  0.023666298    3.9151707    28372.625 
  294000    2.6585725  0.023187599    3.9151824    28372.625 
  295000    2.6532603  0.023252698     3.915182    28372.625 
  296000    2.6573989  0.023606046    3.9151849    28372.625 
  297000    2.6494501  0.025005864    3.9151675    28372.625 
  298000    2.6448918  0.024528706    3.9151803    28372.625 
  299000    2.6450379  0.023313797    3.9151774    28372.625 
  300000    2.6445893  0.023663414    3.9151894    28372.625 
Loop time of 1.60937 on 1 procs for 100000 steps with 256 atoms

Pair  time (%) = 0.352596 (21.909)
Neigh time (%) = 0.593807 (36.8969)
Comm  time (%) = 0.213958 (13.2945)
Outpt time (%) = 0.00346994 (0.215609)
Other time (%) = 0.445537 (27.684)

Nlocal:    256 ave 256 max 256 min
Histogram: 1 0 0 0 0 0 0 0 0 0
Nghost:    187 ave 187 max 187 min
Histogram: 1 0 0 0 0 0 0 0 0 0
Neighs:    100 ave 100 max 100 min
Histogram: 1 0 0 0 0 0 0 0 0 0

Total # of neighbors = 100
Ave neighs/atom = 0.390625
Neighbor list builds = 7645
Dangerous builds = 0
#	run             	10000
	unfix 			1

#------------ kappa -------------------------------------------------------------------------
log 	log_kappa_${iseed}.lammps
log 	log_kappa_10.lammps
