
#------------ NVE rescale ---------------------------------------------------------------------

	velocity 		all create ${T_run} ${seed} rot yes dist gaussian
	velocity 		all create 2.6455576526946114058 ${seed} rot yes dist gaussian
	velocity 		all create 2.6455576526946114058 33333 rot yes dist gaussian

	fix 			1 all nve
	fix 			2 all temp/rescale 1 ${T_run} ${T_run} 0.01 1.0
	fix 			2 all temp/rescale 1 2.6455576526946114058 ${T_run} 0.01 1.0
	fix 			2 all temp/rescale 1 2.6455576526946114058 2.6455576526946114058 0.01 1.0
	timestep		${dt}
	timestep		0.0020000000000000000416
	thermo_style  		custom step temp press etotal vol
	thermo			1000
	run             	200000
Memory usage per processor = 1.67356 Mbytes
Step Temp Press TotEng Volume 
       0    2.6455577  0.023669049   -1.5687558    28372.625 
    1000    2.6423049  0.020724732    2.9690765    28372.625 
    2000    2.6357427   0.02074188    3.1133698    28372.625 
    3000    2.6441864  0.020747025     3.263902    28372.625 
    4000    2.6448914  0.022365238    3.3311799    28372.625 
    5000    2.6503625  0.021977807    3.3623877    28372.625 
    6000    2.6544237  0.022616831    3.4070801    28372.625 
    7000    2.6476597  0.021832834    3.4493852    28372.625 
    8000    2.6391566  0.024077179    3.5306614    28372.625 
    9000    2.6429181  0.022088767    3.5925693    28372.625 
   10000    2.6443323  0.023553102    3.6100735    28372.625 
   11000    2.6447466  0.022379369     3.671077    28372.625 
   12000    2.6363224  0.022553937    3.6814493    28372.625 
   13000    2.6455577  0.023382331    3.7609189    28372.625 
   14000    2.6525576  0.023091019    3.7623706    28372.625 
   15000    2.6537537  0.022670408    3.7811267    28372.625 
   16000    2.6429954  0.024072901    3.8293642    28372.625 
   17000    2.6501927  0.023849463     3.866056    28372.625 
   18000    2.6442781  0.023421572    3.8483119    28372.625 
   19000    2.6477189  0.024909151    3.8795295    28372.625 
   20000    2.6508942  0.023097272     3.867329    28372.625 
   21000    2.6465007  0.024217579    3.8833913    28372.625 
   22000    2.6483758  0.023339766    3.8983951    28372.625 
   23000    2.6438334  0.023768734    3.8979332    28372.625 
   24000    2.6465189  0.023048219    3.8736984    28372.625 
   25000    2.6536617  0.023428039    3.9061744    28372.625 
   26000     2.651265  0.023061752    3.8883656    28372.625 
   27000    2.6456551  0.023366215    3.8878582    28372.625 
   28000    2.6474482  0.023023892    3.8733821    28372.625 
   29000    2.6555391  0.023339127    3.8996993    28372.625 
   30000    2.6444513  0.023410517    3.8962564    28372.625 
   31000    2.6441419  0.024212876     3.895357    28372.625 
   32000      2.64919   0.02392229    3.9148064    28372.625 
   33000    2.6523377  0.023188651    3.9004924    28372.625 
   34000    2.6469666    0.0234828    3.8880593    28372.625 
   35000     2.638522  0.023208749    3.8773253    28372.625 
   36000    2.6397809  0.023551582    3.8991376    28372.625 
   37000    2.6461607  0.023722886    3.8855672    28372.625 
   38000    2.6379935  0.024175465     3.884957    28372.625 
   39000    2.6489446  0.023093302    3.8993994    28372.625 
   40000    2.6475916  0.023297607     3.917457    28372.625 
   41000    2.6446969  0.024109428    3.8887923    28372.625 
   42000    2.6428941  0.023645374    3.8950418    28372.625 
   43000    2.6456081  0.023613728    3.8956284    28372.625 
   44000    2.6494527  0.024144461    3.9087693    28372.625 
   45000    2.6407685  0.024695376    3.9151213    28372.625 
   46000    2.6511307  0.023513295    3.9187199    28372.625 
   47000    2.6406593  0.023770531    3.8948342    28372.625 
   48000    2.6416082  0.024949386    3.9267825    28372.625 
   49000    2.6446359  0.023840714    3.8985101    28372.625 
   50000    2.6536053  0.023450816    3.8983279    28372.625 
   51000    2.6537841  0.024097365      3.92911    28372.625 
   52000    2.6467289  0.024473076    3.9293016    28372.625 
   53000    2.6429999  0.023489008    3.8894151    28372.625 
   54000    2.6497145  0.023274522    3.9103549    28372.625 
   55000    2.6518448  0.023303305    3.9167943    28372.625 
   56000    2.6487281  0.023547045    3.9230286    28372.625 
   57000    2.6487562  0.023325774    3.9243625    28372.625 
   58000    2.6554124  0.023204457    3.9267844    28372.625 
   59000    2.6439736  0.023342198    3.8977905    28372.625 
   60000    2.6434185  0.023371677    3.9003839    28372.625 
   61000    2.6468397   0.02348896    3.8952947    28372.625 
   62000    2.6505459   0.02325137    3.9060883    28372.625 
   63000    2.6448801   0.02330523    3.9055664    28372.625 
   64000     2.639306  0.024963755    3.9110275    28372.625 
   65000    2.6438977  0.024089921     3.907567    28372.625 
   66000    2.6459375  0.023356758    3.8922597    28372.625 
   67000    2.6491584  0.023683903    3.9226107    28372.625 
   68000    2.6442894  0.025191953    3.9227347    28372.625 
   69000     2.650818  0.023382288    3.9220262    28372.625 
   70000    2.6457469  0.023524099    3.9064543    28372.625 
   71000      2.64317  0.023273043    3.9091654    28372.625 
   72000    2.6467855  0.023506417    3.9010761    28372.625 
   73000    2.6516169  0.023273671    3.9200357    28372.625 
   74000     2.649268  0.023635062    3.9206824    28372.625 
   75000    2.6464332  0.023513329    3.9089744    28372.625 
   76000    2.6474821  0.024619919     3.924596    28372.625 
   77000    2.6542596  0.023576039    3.9202552    28372.625 
   78000     2.654189  0.023260649    3.9191915    28372.625 
   79000    2.6432531   0.02486744    3.9088313    28372.625 
   80000    2.6434676  0.023728317    3.8986503    28372.625 
   81000    2.6463975  0.024565502    3.9171976    28372.625 
   82000    2.6539223   0.02368426    3.9038227    28372.625 
   83000    2.6542948  0.023548804    3.9265224    28372.625 
   84000    2.6463537  0.023815314    3.9078582    28372.625 
   85000    2.6395835  0.023300701    3.8965065    28372.625 
   86000    2.6502367   0.02335933    3.9007012    28372.625 
   87000    2.6444891  0.023671123    3.9006214    28372.625 
   88000    2.6464636  0.023788745    3.8997669    28372.625 
   89000    2.6470155  0.023337195    3.9037119    28372.625 
   90000    2.6455577  0.023764071    3.9173191    28372.625 
   91000    2.6466076  0.023583617    3.9049407    28372.625 
   92000    2.6394351  0.024906793    3.9074673    28372.625 
   93000     2.648613  0.024050377    3.9132507    28372.625 
   94000    2.6554483  0.023356584    3.9080207    28372.625 
   95000    2.6466554  0.023658077     3.911615    28372.625 
   96000    2.6448735  0.023688619    3.8961502    28372.625 
   97000     2.646583  0.023801843    3.9118295    28372.625 
   98000    2.6508762  0.023234045    3.8948601    28372.625 
   99000    2.6431718  0.023380883    3.8954014    28372.625 
  100000    2.6545791  0.023403807    3.8964818    28372.625 
  101000    2.6455577  0.024580114    3.9124257    28372.625 
  102000    2.6478565  0.023308663    3.8997678    28372.625 
  103000    2.6509176  0.023578969    3.9192349    28372.625 
  104000    2.6546908  0.023399674    3.8941583    28372.625 
  105000    2.6458876  0.023155889    3.9150448    28372.625 
  106000    2.6529312  0.024011912    3.8978841    28372.625 
  107000    2.6519249  0.023119039    3.9016657    28372.625 
  108000    2.6469998  0.023184525    3.9015753    28372.625 
  109000     2.636541  0.025656488    3.9336468    28372.625 
  110000    2.6514671  0.023445213    3.9071155    28372.625 
  111000    2.6468916  0.023404921    3.8921466    28372.625 
  112000    2.6450718  0.024054992    3.9174586    28372.625 
  113000    2.6524587  0.023714027    3.9182514    28372.625 
  114000    2.6431907  0.023132181    3.9051123    28372.625 
  115000    2.6442416  0.023298196    3.9236823    28372.625 
  116000    2.6453067   0.02348003     3.905506    28372.625 
  117000    2.6468938  0.023273103    3.9002088    28372.625 
  118000    2.6430443    0.0240288    3.9056704    28372.625 
  119000    2.6472157  0.023767278    3.8788691    28372.625 
  120000    2.6419609  0.023005466    3.8953271    28372.625 
  121000     2.649786  0.023457645    3.9099028    28372.625 
  122000    2.6361998  0.023336632    3.8774822    28372.625 
  123000    2.6391018  0.024041413    3.8958545    28372.625 
  124000    2.6410746  0.023449736     3.886326    28372.625 
  125000    2.6364001  0.023317413    3.8862577    28372.625 
  126000    2.6500867  0.024741682    3.9343943    28372.625 
  127000    2.6375008   0.02651035    3.9213855    28372.625 
  128000    2.6493525  0.024047307    3.9173466    28372.625 
  129000    2.6533245  0.023080941    3.9036456    28372.625 
  130000    2.6469127  0.023594584    3.9189906    28372.625 
  131000    2.6541184   0.02337999     3.917648    28372.625 
  132000    2.6439515  0.023655907    3.8895206    28372.625 
  133000    2.6458154  0.023551519    3.8929518    28372.625 
  134000    2.6383129  0.023982344    3.8936202    28372.625 
  135000    2.6465435  0.023782771    3.9112016    28372.625 
  136000    2.6522154  0.023940861    3.9290589    28372.625 
  137000    2.6459025  0.024225564    3.9172974    28372.625 
  138000    2.6435293  0.023756691    3.8890984    28372.625 
  139000    2.6503667  0.023419868    3.9242767    28372.625 
  140000    2.6478287  0.023634676    3.9110812    28372.625 
  141000    2.6495797  0.023272375    3.9247318    28372.625 
  142000    2.6488661  0.023742511    3.8953194    28372.625 
  143000     2.648626  0.023501234    3.9103488    28372.625 
  144000    2.6447463   0.02405891    3.9132851    28372.625 
  145000    2.6368711  0.024147471    3.9167148    28372.625 
  146000    2.6496875  0.024354044     3.887491    28372.625 
  147000    2.6429853  0.023881293    3.8926111    28372.625 
  148000    2.6486067   0.02528991    3.9520802    28372.625 
  149000    2.6380942  0.023079606    3.9054991    28372.625 
  150000    2.6389061  0.023990515    3.9069933    28372.625 
  151000    2.6418545  0.024666555    3.9105922    28372.625 
  152000    2.6455577  0.025609354    3.9269233    28372.625 
  153000    2.6500775  0.023038642    3.9107494    28372.625 
  154000    2.6477265  0.023404316    3.9118688    28372.625 
  155000    2.6458003  0.023346476    3.8983961    28372.625 
  156000    2.6538703  0.023959834    3.9168161    28372.625 
  157000    2.6490562  0.023076787     3.902428    28372.625 
  158000    2.6405594  0.023978621    3.9003509    28372.625 
  159000     2.649389   0.02336384    3.9042474    28372.625 
  160000    2.6500707  0.023208539    3.9064253    28372.625 
  161000    2.6418559  0.023563259    3.9044651    28372.625 
  162000    2.6414698  0.023530307    3.9045674    28372.625 
  163000    2.6411123  0.023655239    3.9055959    28372.625 
  164000    2.6462511  0.023177689    3.8841489    28372.625 
  165000     2.646052  0.024261083    3.8998468    28372.625 
  166000    2.6423665  0.023394872     3.903073    28372.625 
  167000    2.6375852  0.024578174    3.9237638    28372.625 
  168000    2.6509105  0.023298575    3.9105835    28372.625 
  169000    2.6486995  0.023658468    3.9167816    28372.625 
  170000    2.6534773  0.023709164    3.9171741    28372.625 
  171000    2.6444414   0.02382698    3.9073316    28372.625 
  172000    2.6411909  0.023474998    3.9084433    28372.625 
  173000    2.6372301  0.024380721      3.90965    28372.625 
  174000    2.6359382  0.025908616    3.9126589    28372.625 
  175000    2.6523183  0.023517106    3.8998995    28372.625 
  176000    2.6374081  0.024337456    3.9007998    28372.625 
  177000    2.6424872  0.024461927    3.9048196    28372.625 
  178000    2.6495083  0.023172641    3.9176282    28372.625 
  179000     2.654423  0.023306004    3.9228993    28372.625 
  180000     2.637438  0.024235521    3.9118611    28372.625 
  181000    2.6503037  0.023426044    3.9162669    28372.625 
  182000     2.642684  0.023957058    3.8861169    28372.625 
  183000    2.6452851  0.023548083    3.8973672    28372.625 
  184000    2.6445716  0.024540968    3.8995212    28372.625 
  185000    2.6431795  0.023742939    3.8975153    28372.625 
  186000    2.6439741  0.024318725    3.9188504    28372.625 
  187000     2.652949  0.023469203     3.907368    28372.625 
  188000    2.6362028  0.023808079    3.8960933    28372.625 
  189000    2.6528326  0.023437387    3.9091463    28372.625 
  190000    2.6369223  0.024587785     3.911697    28372.625 
  191000    2.6418211    0.0243563    3.9268354    28372.625 
  192000    2.6456903  0.023358303    3.9129513    28372.625 
  193000    2.6517849  0.023362923    3.9188269    28372.625 
  194000    2.6453271  0.024429981    3.9214067    28372.625 
  195000     2.644009  0.023162684    3.9092455    28372.625 
  196000    2.6400019  0.023965515    3.9240681    28372.625 
  197000    2.6427031  0.023831089    3.9094023    28372.625 
  198000    2.6487509  0.023429705    3.9001827    28372.625 
  199000    2.6466706   0.02338744     3.906438    28372.625 
  200000    2.6401471  0.027677488    3.9661555    28372.625 
Loop time of 3.80971 on 1 procs for 200000 steps with 256 atoms

Pair  time (%) = 0.891783 (23.4082)
Neigh time (%) = 1.31937 (34.6317)
Comm  time (%) = 0.46736 (12.2676)
Outpt time (%) = 0.00809002 (0.212353)
Other time (%) = 1.12311 (29.4801)

Nlocal:    256 ave 256 max 256 min
Histogram: 1 0 0 0 0 0 0 0 0 0
Nghost:    160 ave 160 max 160 min
Histogram: 1 0 0 0 0 0 0 0 0 0
Neighs:    96 ave 96 max 96 min
Histogram: 1 0 0 0 0 0 0 0 0 0

Total # of neighbors = 96
Ave neighs/atom = 0.375
Neighbor list builds = 15929
Dangerous builds = 2379
#	run             	1000
	unfix 			1
	unfix 			2

#------------ NVE -----------------------------------------------------------------------------

	fix 			1 all nve
	timestep		${dt}
	timestep		0.0020000000000000000416
	thermo_style  		custom step temp press etotal vol
	thermo			1000
	run             	100000
Memory usage per processor = 1.67356 Mbytes
Step Temp Press TotEng Volume 
  200000    2.6401471  0.027677488    3.9661555    28372.625 
  201000    2.6808684  0.025140849    3.9661447    28372.625 
  202000    2.6948623  0.024194868    3.9661393    28372.625 
  203000    2.6783166  0.023642169    3.9661552    28372.625 
  204000    2.6584824  0.026017588    3.9661162    28372.625 
  205000    2.6771997  0.024300456     3.966149    28372.625 
  206000    2.6976485  0.025043115    3.9661347    28372.625 
  207000    2.6877969   0.02414036    3.9661504    28372.625 
  208000    2.6788929  0.024877974    3.9661609    28372.625 
  209000    2.6743808  0.025691251    3.9661309    28372.625 
  210000     2.685084  0.023796095    3.9661424    28372.625 
  211000    2.6838445  0.024046654     3.966145    28372.625 
  212000    2.6797589  0.023487927    3.9661433    28372.625 
  213000    2.6786987  0.023619922    3.9661448    28372.625 
  214000    2.6777973  0.023994845    3.9661489    28372.625 
  215000    2.6914825  0.023661269    3.9661514    28372.625 
  216000    2.6904141  0.024798181    3.9661551    28372.625 
  217000    2.6797141  0.023671571     3.966164    28372.625 
  218000    2.6745952  0.024255695    3.9661633    28372.625 
  219000    2.6845362   0.02367376    3.9661526    28372.625 
  220000      2.67338  0.024122783     3.966159    28372.625 
  221000    2.6774436  0.024204548    3.9661523    28372.625 
  222000    2.6877311   0.02354209     3.966161    28372.625 
  223000    2.6828542  0.024040245     3.966172    28372.625 
  224000    2.6880393  0.024478149    3.9661624    28372.625 
  225000    2.6863221  0.024749252    3.9661796    28372.625 
  226000    2.6927135  0.024648774     3.966159    28372.625 
  227000    2.6599137  0.025646987     3.966173    28372.625 
  228000    2.6798537  0.024869012    3.9661406    28372.625 
  229000    2.6877803  0.023933727    3.9661713    28372.625 
  230000     2.700074  0.024043338    3.9661533    28372.625 
  231000    2.6876816  0.023497729    3.9661772    28372.625 
  232000    2.6908931   0.02498416     3.966181    28372.625 
  233000     2.675751  0.024739704    3.9661803    28372.625 
  234000    2.6828063  0.023717415    3.9661811    28372.625 
  235000    2.6863111  0.023552528    3.9661903    28372.625 
  236000    2.6816277  0.023899699     3.966178    28372.625 
  237000    2.6662016  0.025707686    3.9661024    28372.625 
  238000    2.7101284  0.024480124    3.9661833    28372.625 
  239000    2.6883979  0.023962542     3.966185    28372.625 
  240000    2.6758143  0.024164379    3.9661871    28372.625 
  241000    2.6898917  0.023795456    3.9661895    28372.625 
  242000    2.6901179  0.023707223    3.9661819    28372.625 
  243000    2.6927598  0.025086585    3.9661807    28372.625 
  244000    2.6868779  0.024144991    3.9661847    28372.625 
  245000    2.6801004  0.024483146     3.966189    28372.625 
  246000    2.6733717  0.024521526    3.9661842    28372.625 
  247000    2.6854861  0.023605725    3.9661793    28372.625 
  248000    2.6877784  0.024176593    3.9661604    28372.625 
  249000    2.6836417  0.024239756    3.9661696    28372.625 
  250000    2.6769662  0.023799687    3.9661689    28372.625 
  251000    2.6876545  0.024748741    3.9661674    28372.625 
  252000    2.6909981  0.024612039    3.9661199    28372.625 
  253000    2.6782254  0.023514961     3.966161    28372.625 
  254000    2.6928071  0.023464322    3.9661669    28372.625 
  255000    2.6813303  0.023804256     3.966165    28372.625 
  256000    2.6924141  0.023539313    3.9661631    28372.625 
  257000    2.6903124  0.023541049    3.9661654    28372.625 
  258000    2.6964992  0.024054127    3.9661649    28372.625 
  259000    2.6700744  0.023651798     3.966176    28372.625 
  260000    2.6700494  0.025138871    3.9661787    28372.625 
  261000    2.6912888  0.023516387    3.9661758    28372.625 
  262000    2.6811423  0.024256375    3.9661674    28372.625 
  263000     2.685052  0.023974401    3.9661669    28372.625 
  264000    2.6791989  0.023674034    3.9661608    28372.625 
  265000    2.6894941  0.023694019    3.9661624    28372.625 
  266000    2.6880362  0.024147059    3.9661447    28372.625 
  267000    2.6848813  0.023400102     3.966158    28372.625 
  268000    2.6899506  0.024707333    3.9661526    28372.625 
  269000    2.6810017  0.024074785    3.9661667    28372.625 
  270000    2.6877078  0.024056089    3.9661719    28372.625 
  271000    2.6828454   0.02377391    3.9661743    28372.625 
  272000     2.679412  0.023895639    3.9661664    28372.625 
  273000    2.7030651  0.024039871    3.9661604    28372.625 
  274000    2.6892669  0.023684084    3.9661608    28372.625 
  275000    2.7025663  0.024284939    3.9661543    28372.625 
  276000    2.6782771  0.023914503    3.9661631    28372.625 
  277000    2.6715753  0.025111493    3.9661753    28372.625 
  278000    2.6907108  0.024444533    3.9661721    28372.625 
  279000    2.6869875  0.024114992    3.9661735    28372.625 
  280000    2.6772987  0.023924704    3.9661411    28372.625 
  281000    2.6811687  0.023817475     3.966175    28372.625 
  282000     2.700448  0.024803006    3.9661748    28372.625 
  283000    2.6885701  0.023839001    3.9661677    28372.625 
  284000    2.6850061  0.023768964    3.9661617    28372.625 
  285000    2.6920028  0.023696049    3.9661669    28372.625 
  286000    2.6840543  0.023647456     3.966164    28372.625 
  287000    2.6842914  0.023733707    3.9661714    28372.625 
  288000    2.6811554  0.023977148    3.9661655    28372.625 
  289000    2.6884196  0.023879986    3.9661713    28372.625 
  290000    2.6723987  0.024739292    3.9661439    28372.625 
  291000    2.6803503  0.024759076    3.9661723    28372.625 
  292000    2.6819637  0.024420581     3.966181    28372.625 
  293000    2.6873174  0.024560807    3.9661873    28372.625 
  294000    2.6840965  0.024092058    3.9661768    28372.625 
  295000    2.6758498  0.024233044     3.966175    28372.625 
  296000    2.6844823    0.0244093    3.9661748    28372.625 
  297000    2.7075312  0.023441077    3.9661694    28372.625 
  298000    2.6930585  0.023715249    3.9661702    28372.625 
  299000    2.6919632  0.023685276     3.966173    28372.625 
  300000    2.6837442      0.02388    3.9661721    28372.625 
Loop time of 1.64516 on 1 procs for 100000 steps with 256 atoms

Pair  time (%) = 0.357573 (21.7349)
Neigh time (%) = 0.614934 (37.3784)
Comm  time (%) = 0.220068 (13.3767)
Outpt time (%) = 0.00371933 (0.226077)
Other time (%) = 0.448865 (27.284)

Nlocal:    256 ave 256 max 256 min
Histogram: 1 0 0 0 0 0 0 0 0 0
Nghost:    162 ave 162 max 162 min
Histogram: 1 0 0 0 0 0 0 0 0 0
Neighs:    97 ave 97 max 97 min
Histogram: 1 0 0 0 0 0 0 0 0 0

Total # of neighbors = 97
Ave neighs/atom = 0.378906
Neighbor list builds = 7842
Dangerous builds = 8
#	run             	10000
	unfix 			1

#------------ kappa -------------------------------------------------------------------------
log 	log_kappa_${iseed}.lammps
log 	log_kappa_3.lammps
