
#------------ NVE rescale ---------------------------------------------------------------------

	velocity 		all create ${T_run} ${seed} rot yes dist gaussian
	velocity 		all create 2.6455576526946114058 ${seed} rot yes dist gaussian
	velocity 		all create 2.6455576526946114058 99999 rot yes dist gaussian

	fix 			1 all nve
	fix 			2 all temp/rescale 1 ${T_run} ${T_run} 0.01 1.0
	fix 			2 all temp/rescale 1 2.6455576526946114058 ${T_run} 0.01 1.0
	fix 			2 all temp/rescale 1 2.6455576526946114058 2.6455576526946114058 0.01 1.0
	timestep		${dt}
	timestep		0.0020000000000000000416
	thermo_style  		custom step temp press etotal vol
	thermo			1000
	run             	200000
Memory usage per processor = 1.67356 Mbytes
Step Temp Press TotEng Volume 
       0    2.6455577  0.023669049   -1.5687558    28372.625 
    1000     2.640472  0.018280929    2.9839736    28372.625 
    2000    2.6442734  0.021932707    3.1399859    28372.625 
    3000    2.6492466  0.019846621    3.0719094    28372.625 
    4000    2.6438915  0.021817383    3.2778702    28372.625 
    5000    2.6543226  0.020913425    3.3271794    28372.625 
    6000    2.6520011  0.022582168    3.4075911    28372.625 
    7000    2.6528701  0.021750898    3.4868509    28372.625 
    8000    2.6474002  0.022450525    3.5466721    28372.625 
    9000    2.6462405  0.022739075     3.590234    28372.625 
   10000    2.6360675   0.02344514    3.6123116    28372.625 
   11000    2.6416992  0.023136057    3.7262593    28372.625 
   12000    2.6453001  0.022641072    3.7414851    28372.625 
   13000    2.6470674  0.022520877    3.7856384    28372.625 
   14000    2.6399965  0.024316516     3.830157    28372.625 
   15000    2.6464574  0.023125342    3.8489629    28372.625 
   16000    2.6412936  0.023252136    3.8355779    28372.625 
   17000     2.653192  0.023244834    3.8729463    28372.625 
   18000    2.6427277  0.023834828    3.8712644    28372.625 
   19000    2.6547095  0.023400644    3.9010093    28372.625 
   20000    2.6467663  0.023235195    3.8993042    28372.625 
   21000    2.6459791  0.023849777    3.8821228    28372.625 
   22000    2.6465116   0.02343754    3.9057468    28372.625 
   23000    2.6464843  0.023690151    3.8929769    28372.625 
   24000    2.6548512  0.023586564    3.9139699    28372.625 
   25000    2.6452066  0.023966094    3.9021975    28372.625 
   26000    2.6514155  0.024388253    3.9379558    28372.625 
   27000    2.6521733   0.02337248    3.9250464    28372.625 
   28000    2.6536524  0.024160656    3.9289208    28372.625 
   29000    2.6461792  0.024278637    3.8972861    28372.625 
   30000    2.6533671  0.023414766    3.9143517    28372.625 
   31000     2.652509   0.02354525    3.8970831    28372.625 
   32000    2.6514913  0.024043864     3.929471    28372.625 
   33000    2.6507022  0.023321946    3.9004318    28372.625 
   34000    2.6472151  0.023068215    3.9065477    28372.625 
   35000    2.6551204   0.02351045     3.926166    28372.625 
   36000    2.6466167  0.023423988    3.9099893    28372.625 
   37000    2.6447244  0.024503821    3.9412434    28372.625 
   38000    2.6538492  0.023330238    3.8987653    28372.625 
   39000    2.6538856  0.023194121    3.8993876    28372.625 
   40000    2.6442335  0.023623796    3.9000335    28372.625 
   41000    2.6455533  0.023223218     3.904036    28372.625 
   42000    2.6472916  0.023440473    3.9040923    28372.625 
   43000    2.6449289  0.023503763    3.9099325    28372.625 
   44000    2.6402111  0.024579591      3.91216    28372.625 
   45000     2.642401  0.024395615    3.9285619    28372.625 
   46000    2.6457414  0.024249421    3.9138456    28372.625 
   47000     2.648045  0.023923531    3.9044577    28372.625 
   48000    2.6555492  0.023835031    3.9062391    28372.625 
   49000    2.6455577  0.023289403     3.906182    28372.625 
   50000    2.6473871  0.023768868    3.9040626    28372.625 
   51000    2.6515321  0.023722331    3.9182186    28372.625 
   52000    2.6417298   0.02330413    3.9033629    28372.625 
   53000    2.6432788  0.023796219    3.9194583    28372.625 
   54000    2.6475379  0.023608408    3.9286726    28372.625 
   55000    2.6370707  0.024150223    3.8987311    28372.625 
   56000    2.6408171  0.023128732    3.8999715    28372.625 
   57000    2.6462425  0.023409607    3.8873588    28372.625 
   58000     2.648794  0.023903312     3.920959    28372.625 
   59000     2.647252  0.023102391     3.905842    28372.625 
   60000    2.6466672   0.02327762    3.8759615    28372.625 
   61000    2.6483445  0.024377297    3.9183214    28372.625 
   62000    2.6523754  0.023571847    3.9199494    28372.625 
   63000    2.6542774  0.023665755    3.9037229    28372.625 
   64000    2.6464599  0.023339025    3.9041828    28372.625 
   65000    2.6486109   0.02488478    3.9247238    28372.625 
   66000    2.6538872  0.023178726    3.9093934    28372.625 
   67000    2.6462531  0.023399205      3.92455    28372.625 
   68000    2.6386794   0.02586979    3.9428635    28372.625 
   69000    2.6460664  0.023639394    3.9000894    28372.625 
   70000    2.6503899  0.023190201    3.9001229    28372.625 
   71000    2.6477023  0.023323989    3.9079294    28372.625 
   72000    2.6514322  0.023783661    3.9100605    28372.625 
   73000    2.6376715  0.024685054    3.9112927    28372.625 
   74000    2.6439416  0.023249679    3.9119862    28372.625 
   75000    2.6535274  0.023814727    3.9023962    28372.625 
   76000    2.6375557  0.023826878    3.8992158    28372.625 
   77000    2.6479733  0.023766307     3.914584    28372.625 
   78000    2.6516495  0.024796049    3.9350245    28372.625 
   79000    2.6452507  0.023454621    3.9040583    28372.625 
   80000    2.6443028  0.023393733    3.9072819    28372.625 
   81000    2.6466628  0.023693273    3.9095244    28372.625 
   82000    2.6517097  0.025022741    3.9301989    28372.625 
   83000    2.6473279  0.023410444    3.9142716    28372.625 
   84000    2.6454063  0.023668086    3.8988267    28372.625 
   85000    2.6455577  0.023290615    3.8778873    28372.625 
   86000    2.6409296  0.024240595    3.8847299    28372.625 
   87000    2.6518269  0.023762698    3.9035999    28372.625 
   88000    2.6441156  0.024043961    3.9016942    28372.625 
   89000    2.6450019  0.023365827    3.9168489    28372.625 
   90000    2.6424584  0.023159673    3.9028949    28372.625 
   91000    2.6454301  0.023435678    3.9058996    28372.625 
   92000    2.6423309  0.023506535    3.9070147    28372.625 
   93000    2.6517657  0.023066533    3.9048925    28372.625 
   94000    2.6509883  0.023465002    3.9255743    28372.625 
   95000    2.6491696  0.023771862    3.9178385    28372.625 
   96000    2.6477299  0.023525784     3.902168    28372.625 
   97000    2.6517689  0.023162005    3.8850539    28372.625 
   98000    2.6445598  0.023668092    3.8972268    28372.625 
   99000     2.638403  0.023818648    3.9136681    28372.625 
  100000    2.6511034  0.023829712    3.9199142    28372.625 
  101000    2.6476291   0.02355447    3.9084301    28372.625 
  102000     2.653074   0.02323565    3.9161449    28372.625 
  103000    2.6525274   0.02312037    3.9032837    28372.625 
  104000    2.6492738  0.023506383    3.9163388    28372.625 
  105000    2.6453192  0.023318278    3.9040078    28372.625 
  106000    2.6422662  0.023697333    3.9252118    28372.625 
  107000    2.6455849  0.023276926    3.9005048    28372.625 
  108000    2.6467728  0.025930205    3.9537581    28372.625 
  109000    2.6486387  0.023441122    3.9056836    28372.625 
  110000    2.6494273  0.023269172    3.9089622    28372.625 
  111000    2.6476811   0.02469491    3.9416618    28372.625 
  112000    2.6507526  0.023517782    3.9158024    28372.625 
  113000    2.6443153   0.02361927    3.8889334    28372.625 
  114000    2.6470621  0.023907507    3.9051985    28372.625 
  115000    2.6400006  0.023153343    3.9084961    28372.625 
  116000    2.6522992  0.023383701     3.910904    28372.625 
  117000    2.6473855  0.023673208    3.9123391    28372.625 
  118000    2.6459255  0.023666113    3.8983074    28372.625 
  119000    2.6379876   0.02308639    3.8999839    28372.625 
  120000     2.641553  0.024450501    3.9010518    28372.625 
  121000    2.6439045  0.024487679    3.9173348    28372.625 
  122000    2.6430386  0.023273925    3.9126847    28372.625 
  123000    2.6371476  0.023603735    3.9118939    28372.625 
  124000     2.650722   0.02578164    3.9314272    28372.625 
  125000    2.6402218  0.024267945     3.900603    28372.625 
  126000    2.6533805  0.023769008    3.9177058    28372.625 
  127000    2.6531424  0.023315222     3.903222    28372.625 
  128000    2.6452759  0.024994518    3.8948045    28372.625 
  129000    2.6461543  0.023300347    3.8959185    28372.625 
  130000    2.6378473  0.023320865    3.8805672    28372.625 
  131000    2.6357958   0.02406831     3.887675    28372.625 
  132000     2.637869  0.023873135    3.9047782    28372.625 
  133000    2.6521541  0.023411589    3.9094023    28372.625 
  134000    2.6485859    0.0241421    3.9274923    28372.625 
  135000     2.653778  0.024383625    3.9428126    28372.625 
  136000    2.6507803  0.023414381    3.8980765    28372.625 
  137000    2.6495203  0.023709443    3.9024983    28372.625 
  138000    2.6416028  0.024571273    3.9102374    28372.625 
  139000    2.6485488  0.024251022    3.8975428    28372.625 
  140000    2.6532634  0.023092487    3.8907839    28372.625 
  141000    2.6510864  0.023638612    3.9062605    28372.625 
  142000    2.6443771  0.023975971    3.8908742    28372.625 
  143000    2.6431838  0.023231799    3.9094219    28372.625 
  144000    2.6457972  0.023928777    3.9122909    28372.625 
  145000    2.6447565  0.022943951    3.8964289    28372.625 
  146000    2.6410834  0.023112542    3.8975284    28372.625 
  147000    2.6467514  0.023799935    3.9086177    28372.625 
  148000    2.6475887  0.024219414    3.9224134    28372.625 
  149000    2.6439553  0.023719266    3.9083094    28372.625 
  150000    2.6470201  0.024443657    3.9095651    28372.625 
  151000    2.6461511  0.023366427    3.9105153    28372.625 
  152000    2.6518938  0.023290562    3.8953873    28372.625 
  153000    2.6426228  0.024176254     3.919025    28372.625 
  154000    2.6488242  0.023755489    3.9107648    28372.625 
  155000    2.6375169  0.024550345    3.8965849    28372.625 
  156000     2.642947  0.024316334    3.9001172    28372.625 
  157000    2.6510974  0.023453842    3.9009328    28372.625 
  158000    2.6487592  0.023254401    3.9069838    28372.625 
  159000    2.6440942  0.023624499    3.9078915    28372.625 
  160000    2.6467264  0.023184914     3.910728    28372.625 
  161000    2.6441205  0.023297825    3.9187482    28372.625 
  162000    2.6459299  0.023542327     3.904626    28372.625 
  163000    2.6380208  0.023382611    3.8890273    28372.625 
  164000    2.6402882  0.025017582    3.9207307    28372.625 
  165000    2.6413404   0.02450469    3.9249341    28372.625 
  166000    2.6500855  0.022946289     3.898355    28372.625 
  167000     2.643988  0.023401171    3.8991683    28372.625 
  168000    2.6440208  0.023725131     3.914812    28372.625 
  169000    2.6414199  0.023388206    3.9158489    28372.625 
  170000    2.6414778  0.023818726    3.9013901    28372.625 
  171000    2.6451199  0.023778917    3.9067251    28372.625 
  172000    2.6489722  0.023359308    3.9080448    28372.625 
  173000    2.6511332   0.02367519    3.8940721    28372.625 
  174000    2.6373756  0.024603729    3.8878559    28372.625 
  175000    2.6521521  0.023216163    3.9185421    28372.625 
  176000     2.644102  0.024481577    3.9031396    28372.625 
  177000    2.6399268  0.024256672    3.9047999    28372.625 
  178000    2.6462855  0.024397178    3.9072054    28372.625 
  179000    2.6469407  0.023969104    3.9158618    28372.625 
  180000    2.6489836  0.023842222    3.9041467    28372.625 
  181000    2.6503945  0.023170324    3.9069756    28372.625 
  182000    2.6541259  0.023372468    3.9209898    28372.625 
  183000    2.6403997   0.02437116     3.910313    28372.625 
  184000    2.6480173  0.023539755    3.9028738    28372.625 
  185000    2.6425454  0.025224988     3.934469    28372.625 
  186000    2.6451838  0.024584169     3.922809    28372.625 
  187000    2.6441293  0.024138713    3.8983623    28372.625 
  188000    2.6431416  0.023215609    3.8844664    28372.625 
  189000    2.6544025  0.023549882    3.9208252    28372.625 
  190000    2.6371948  0.023819586    3.9124668    28372.625 
  191000    2.6460523  0.023480195    3.9119563    28372.625 
  192000     2.636121  0.024573704    3.9017508    28372.625 
  193000    2.6526171  0.023496989    3.9248152    28372.625 
  194000    2.6535344  0.023506862     3.913099    28372.625 
  195000    2.6431286   0.02421958    3.9112069    28372.625 
  196000    2.6478718  0.023872225    3.9204392    28372.625 
  197000    2.6380221  0.024302022    3.9061341    28372.625 
  198000    2.6428727  0.023476522    3.9069077    28372.625 
  199000    2.6502886  0.023515475    3.9105137    28372.625 
  200000    2.6485845  0.025441363    3.9561785    28372.625 
Loop time of 3.66816 on 1 procs for 200000 steps with 256 atoms

Pair  time (%) = 0.860394 (23.4558)
Neigh time (%) = 1.2927 (35.241)
Comm  time (%) = 0.44417 (12.1088)
Outpt time (%) = 0.00663209 (0.180802)
Other time (%) = 1.06426 (29.0136)

Nlocal:    256 ave 256 max 256 min
Histogram: 1 0 0 0 0 0 0 0 0 0
Nghost:    166 ave 166 max 166 min
Histogram: 1 0 0 0 0 0 0 0 0 0
Neighs:    96 ave 96 max 96 min
Histogram: 1 0 0 0 0 0 0 0 0 0

Total # of neighbors = 96
Ave neighs/atom = 0.375
Neighbor list builds = 16185
Dangerous builds = 1841
#	run             	1000
	unfix 			1
	unfix 			2

#------------ NVE -----------------------------------------------------------------------------

	fix 			1 all nve
	timestep		${dt}
	timestep		0.0020000000000000000416
	thermo_style  		custom step temp press etotal vol
	thermo			1000
	run             	100000
Memory usage per processor = 1.67356 Mbytes
Step Temp Press TotEng Volume 
  200000    2.6485845  0.025441363    3.9561785    28372.625 
  201000    2.6813829   0.02362087    3.9561466    28372.625 
  202000     2.678078  0.024416661     3.956161    28372.625 
  203000    2.6800265  0.023605177    3.9561581    28372.625 
  204000      2.67261  0.023818029     3.956161    28372.625 
  205000    2.6533718  0.024530502    3.9561731    28372.625 
  206000    2.6655253  0.024135156    3.9561552    28372.625 
  207000    2.6726567  0.023716306    3.9561497    28372.625 
  208000    2.6854693  0.023449549    3.9561433    28372.625 
  209000    2.6785103  0.023770746    3.9561391    28372.625 
  210000    2.6704998  0.023929542    3.9561384    28372.625 
  211000    2.6819412  0.023910481    3.9561393    28372.625 
  212000    2.6811988  0.023710484    3.9561373    28372.625 
  213000    2.6774338  0.023709087    3.9561322    28372.625 
  214000    2.6885691  0.024231397    3.9561383    28372.625 
  215000    2.6859257  0.023623527     3.956135    28372.625 
  216000    2.6742304  0.024232538    3.9561371    28372.625 
  217000    2.6647835  0.025420898    3.9561465    28372.625 
  218000    2.6931767   0.02472135    3.9561419    28372.625 
  219000    2.6859506  0.024048811    3.9561481    28372.625 
  220000    2.7008615  0.023514053    3.9561343    28372.625 
  221000    2.6715789  0.024552408    3.9561443    28372.625 
  222000    2.6929506   0.02391161    3.9561348    28372.625 
  223000    2.6996595  0.023366619    3.9561427    28372.625 
  224000    2.6911151  0.023757314     3.956135    28372.625 
  225000    2.6796519  0.024538961    3.9561522    28372.625 
  226000     2.685669  0.024728398    3.9561253    28372.625 
  227000    2.6856103  0.023896599    3.9561497    28372.625 
  228000    2.6783007  0.023535253    3.9561517    28372.625 
  229000    2.6825911  0.023928545    3.9561527    28372.625 
  230000    2.6844851  0.023538584    3.9561448    28372.625 
  231000    2.6719304  0.023611845    3.9561435    28372.625 
  232000     2.675257  0.024693485    3.9561421    28372.625 
  233000    2.6756032    0.0236238    3.9561333    28372.625 
  234000    2.6761575  0.024269626    3.9561131    28372.625 
  235000    2.6707563  0.023451329    3.9561217    28372.625 
  236000     2.662737  0.024430607    3.9561185    28372.625 
  237000    2.6816519  0.023771642    3.9561214    28372.625 
  238000    2.6742377  0.024555971    3.9561347    28372.625 
  239000     2.678571  0.023717096    3.9561303    28372.625 
  240000    2.6890389  0.023698912    3.9561249    28372.625 
  241000    2.6828266  0.023632084    3.9561208    28372.625 
  242000    2.6787357  0.023637919    3.9561353    28372.625 
  243000    2.6757941  0.024342451     3.956136    28372.625 
  244000    2.6866385    0.0235007    3.9561399    28372.625 
  245000     2.693439   0.02463073    3.9561334    28372.625 
  246000     2.685072  0.024123002    3.9561252    28372.625 
  247000    2.6666827  0.024781866    3.9561218    28372.625 
  248000    2.6767786  0.024453983    3.9561381    28372.625 
  249000    2.6784197  0.023398159    3.9561357    28372.625 
  250000    2.6667849  0.024026912    3.9561436    28372.625 
  251000    2.6842367  0.023467069    3.9561359    28372.625 
  252000    2.6790309  0.024140151    3.9561328    28372.625 
  253000    2.6866473    0.0241076     3.956134    28372.625 
  254000    2.6877527  0.024231426    3.9561395    28372.625 
  255000    2.6596799  0.025534412    3.9561753    28372.625 
  256000    2.6759588  0.024768054    3.9561382    28372.625 
  257000     2.685199  0.023809903    3.9561274    28372.625 
  258000    2.6844196  0.023972382    3.9561201    28372.625 
  259000    2.6614414  0.024607825    3.9560784    28372.625 
  260000    2.6712061  0.023496812    3.9561275    28372.625 
  261000    2.6688742  0.023843931    3.9561278    28372.625 
  262000    2.6759902  0.024147965    3.9561094    28372.625 
  263000    2.6811348  0.023633015    3.9561229    28372.625 
  264000    2.6554559  0.026036497    3.9560695    28372.625 
  265000    2.6894548   0.02421528    3.9561092    28372.625 
  266000    2.6736342  0.023447696    3.9561331    28372.625 
  267000    2.6752825  0.023682365    3.9561264    28372.625 
  268000     2.681348  0.023582655    3.9561265    28372.625 
  269000     2.692934  0.023872302    3.9561089    28372.625 
  270000    2.6793144   0.02426107    3.9561212    28372.625 
  271000    2.6725136   0.02399207     3.956102    28372.625 
  272000    2.6844633   0.02437106    3.9561019    28372.625 
  273000    2.6792805  0.024328997    3.9561167    28372.625 
  274000    2.6809364  0.023730444    3.9561108    28372.625 
  275000    2.6757814  0.023500446     3.956101    28372.625 
  276000    2.6763956  0.024389842    3.9560931    28372.625 
  277000    2.6726073  0.024949345    3.9561096    28372.625 
  278000     2.671813  0.023472596    3.9560931    28372.625 
  279000    2.6784566  0.023668914    3.9560951    28372.625 
  280000    2.6873608  0.023546179    3.9560746    28372.625 
  281000    2.6734552   0.02373253    3.9560672    28372.625 
  282000    2.6790081  0.023944769    3.9560716    28372.625 
  283000    2.6514594  0.025021981    3.9560747    28372.625 
  284000    2.6665224  0.024595166    3.9560767    28372.625 
  285000    2.6786082  0.024214035    3.9560771    28372.625 
  286000    2.6799096  0.023431188    3.9560687    28372.625 
  287000    2.6763246  0.024008376    3.9560658    28372.625 
  288000    2.6885415  0.024152685    3.9560501    28372.625 
  289000    2.6830392    0.0240413    3.9560778    28372.625 
  290000    2.6820533  0.024153978    3.9560696    28372.625 
  291000    2.6848735  0.024214261    3.9560805    28372.625 
  292000    2.6688718  0.024437165    3.9560762    28372.625 
  293000     2.684987  0.024425881    3.9560713    28372.625 
  294000    2.6881051  0.023458197    3.9560802    28372.625 
  295000    2.6784656  0.023628565    3.9560894    28372.625 
  296000    2.6864372   0.02372418    3.9560824    28372.625 
  297000    2.6780112  0.023688553    3.9560823    28372.625 
  298000    2.6916537  0.023482789    3.9560742    28372.625 
  299000    2.6685192  0.024408904    3.9560787    28372.625 
  300000    2.6702672  0.023888895    3.9560762    28372.625 
Loop time of 1.65729 on 1 procs for 100000 steps with 256 atoms

Pair  time (%) = 0.35386 (21.3517)
Neigh time (%) = 0.637383 (38.4592)
Comm  time (%) = 0.220268 (13.2908)
Outpt time (%) = 0.0032928 (0.198685)
Other time (%) = 0.442491 (26.6996)

Nlocal:    256 ave 256 max 256 min
Histogram: 1 0 0 0 0 0 0 0 0 0
Nghost:    163 ave 163 max 163 min
Histogram: 1 0 0 0 0 0 0 0 0 0
Neighs:    85 ave 85 max 85 min
Histogram: 1 0 0 0 0 0 0 0 0 0

Total # of neighbors = 85
Ave neighs/atom = 0.332031
Neighbor list builds = 8167
Dangerous builds = 442
#	run             	10000
	unfix 			1

#------------ kappa -------------------------------------------------------------------------
log 	log_kappa_${iseed}.lammps
log 	log_kappa_9.lammps
