
#------------ NVE rescale ---------------------------------------------------------------------

	velocity 		all create ${T_run} ${seed} rot yes dist gaussian
	velocity 		all create 2.6455576526946114058 ${seed} rot yes dist gaussian
	velocity 		all create 2.6455576526946114058 88888 rot yes dist gaussian

	fix 			1 all nve
	fix 			2 all temp/rescale 1 ${T_run} ${T_run} 0.01 1.0
	fix 			2 all temp/rescale 1 2.6455576526946114058 ${T_run} 0.01 1.0
	fix 			2 all temp/rescale 1 2.6455576526946114058 2.6455576526946114058 0.01 1.0
	timestep		${dt}
	timestep		0.0020000000000000000416
	thermo_style  		custom step temp press etotal vol
	thermo			1000
	run             	200000
Memory usage per processor = 1.67356 Mbytes
Step Temp Press TotEng Volume 
       0    2.6455577  0.023669049   -1.5687558    28372.625 
    1000    2.6487519  0.019671729    3.0813365    28372.625 
    2000    2.6541279  0.019735073    3.0955067    28372.625 
    3000    2.6375398  0.021088247    3.1737944    28372.625 
    4000    2.6357318   0.02157814    3.2428531    28372.625 
    5000    2.6489861  0.021268168    3.2737017    28372.625 
    6000    2.6547225  0.021984395      3.32128    28372.625 
    7000    2.6493102   0.02087492     3.404879    28372.625 
    8000    2.6430843  0.022203622    3.4388013    28372.625 
    9000     2.644021  0.023214222    3.5342754    28372.625 
   10000     2.653994  0.022670991    3.5623246    28372.625 
   11000     2.640597  0.022824271    3.6406518    28372.625 
   12000    2.6518005  0.023849596    3.7024051    28372.625 
   13000    2.6487987  0.023357249    3.7243409    28372.625 
   14000    2.6537355    0.0233189    3.7413671    28372.625 
   15000    2.6455577  0.022913601    3.7767103    28372.625 
   16000    2.6430664  0.024256765    3.7801102    28372.625 
   17000    2.6442313  0.023539266     3.765686    28372.625 
   18000    2.6463605  0.023439981    3.7977799    28372.625 
   19000    2.6473684  0.024172497    3.8315085    28372.625 
   20000    2.6415822  0.023089983    3.7861438    28372.625 
   21000    2.6360939  0.024410801    3.8474722    28372.625 
   22000    2.6466744  0.022957185     3.830742    28372.625 
   23000    2.6433941  0.023214805    3.8362979    28372.625 
   24000    2.6526948   0.02387355     3.845423    28372.625 
   25000    2.6486163  0.023127617    3.8510068    28372.625 
   26000    2.6499796  0.023014434      3.85916    28372.625 
   27000    2.6446817  0.025040154    3.8583512    28372.625 
   28000    2.6455795  0.023350819    3.8613469    28372.625 
   29000    2.6519407  0.023609974    3.8782965    28372.625 
   30000    2.6512794  0.023192358     3.865033    28372.625 
   31000    2.6436389  0.024334485    3.8977761    28372.625 
   32000    2.6456452  0.023268595    3.9002158    28372.625 
   33000    2.6436795  0.023759882     3.902247    28372.625 
   34000    2.6457156  0.023215246    3.8885808    28372.625 
   35000     2.651908  0.023371524    3.9196527    28372.625 
   36000    2.6527317  0.023372513    3.9210954    28372.625 
   37000    2.6540511  0.024206028    3.9152365    28372.625 
   38000    2.6485839  0.023175137    3.9177074    28372.625 
   39000    2.6491757  0.023543478    3.8917001    28372.625 
   40000    2.6455609  0.023253354    3.8943809    28372.625 
   41000    2.6471216  0.024046291    3.9291303    28372.625 
   42000    2.6507124  0.024038552    3.9142299    28372.625 
   43000     2.647089  0.024067039    3.9156826    28372.625 
   44000    2.6436083  0.024314591    3.8969843    28372.625 
   45000    2.6390538  0.024641997    3.8948706    28372.625 
   46000    2.6383811  0.023388598     3.896861    28372.625 
   47000    2.6447555  0.024009498    3.9128258    28372.625 
   48000    2.6443876  0.023102265    3.9124827    28372.625 
   49000    2.6485349  0.023676111    3.9111211    28372.625 
   50000    2.6500524  0.023491023    3.9113072    28372.625 
   51000    2.6460963  0.023246723    3.8971999    28372.625 
   52000    2.6525364  0.024048593    3.9112426    28372.625 
   53000    2.6543019  0.023486389    3.9332407    28372.625 
   54000    2.6463475  0.023157188      3.90636    28372.625 
   55000    2.6466993  0.023618711    3.9064705    28372.625 
   56000    2.6454125  0.023609185    3.9136514    28372.625 
   57000    2.6520748  0.023787234    3.9093965    28372.625 
   58000    2.6474968  0.023963041    3.9244675    28372.625 
   59000    2.6484944  0.023571216    3.9089432    28372.625 
   60000    2.6447076  0.024426908    3.9244756    28372.625 
   61000    2.6462265  0.023742153    3.9135745    28372.625 
   62000    2.6440539  0.023844356     3.915101    28372.625 
   63000    2.6455577  0.023810988    3.9166745    28372.625 
   64000    2.6475998  0.023079789    3.9073591    28372.625 
   65000    2.6515689  0.023466633    3.9051537    28372.625 
   66000    2.6509001  0.023841733    3.9081331    28372.625 
   67000    2.6535319  0.023779739    3.9058816    28372.625 
   68000    2.6468284  0.024359603    3.9216621    28372.625 
   69000    2.6502935  0.023235285    3.9080042    28372.625 
   70000    2.6492059  0.023376545     3.893893    28372.625 
   71000    2.6515877  0.023342932    3.9095512    28372.625 
   72000    2.6489306  0.023715585    3.9077827    28372.625 
   73000    2.6499156  0.023328605    3.9066369    28372.625 
   74000    2.6489799  0.023434335    3.9197238    28372.625 
   75000    2.6434957  0.023709184    3.9089314    28372.625 
   76000     2.646106  0.023576238    3.8972815    28372.625 
   77000     2.646764  0.023388597    3.9124671    28372.625 
   78000    2.6393786  0.024257236    3.9197258    28372.625 
   79000    2.6483703  0.023286686     3.919303    28372.625 
   80000    2.6472982  0.023625688     3.906067    28372.625 
   81000    2.6452951  0.023689038    3.8893007    28372.625 
   82000    2.6452489  0.024072313     3.906628    28372.625 
   83000    2.6497402  0.023310966     3.906394    28372.625 
   84000    2.6522824  0.023358421    3.9095191    28372.625 
   85000    2.6492428  0.023547747    3.8948689    28372.625 
   86000    2.6379216  0.022967736     3.896064    28372.625 
   87000    2.6379647  0.024531195    3.8810794    28372.625 
   88000    2.6356268  0.024005402    3.9136152    28372.625 
   89000      2.64443  0.023181463    3.8997308    28372.625 
   90000    2.6511775  0.023640663    3.8872976    28372.625 
   91000     2.646005  0.023459837    3.9163181    28372.625 
   92000    2.6383558  0.023429284    3.9020949    28372.625 
   93000    2.6464021  0.023496951    3.8906238    28372.625 
   94000    2.6552513  0.023818042    3.9087597    28372.625 
   95000    2.6484668  0.024022197    3.9095066    28372.625 
   96000    2.6383459   0.02374986    3.9133646    28372.625 
   97000    2.6382509  0.024131368    3.9139788    28372.625 
   98000    2.6505085  0.023462377     3.899574    28372.625 
   99000    2.6441804  0.024639599    3.9162566    28372.625 
  100000    2.6509036  0.023282264     3.901345    28372.625 
  101000    2.6449426   0.02365725    3.9013247    28372.625 
  102000    2.6478331  0.023678246    3.9156025    28372.625 
  103000    2.6455577  0.024390592    3.9132304    28372.625 
  104000    2.6433892  0.023259907    3.8999732    28372.625 
  105000    2.6515206  0.023774359    3.9177172    28372.625 
  106000    2.6499842  0.023353035    3.9021178    28372.625 
  107000    2.6537473  0.023402298    3.9197695    28372.625 
  108000    2.6428455   0.02335978    3.9050764    28372.625 
  109000    2.6432556  0.023756372    3.8891713    28372.625 
  110000    2.6481076  0.023235364    3.9072072    28372.625 
  111000    2.6471473  0.024224772    3.9072161    28372.625 
  112000     2.635619  0.024745393    3.8921356    28372.625 
  113000    2.6513947  0.023852813    3.9088748    28372.625 
  114000    2.6372391   0.02393969    3.9000916    28372.625 
  115000    2.6409994  0.024423514    3.9036457    28372.625 
  116000    2.6518238  0.023356168    3.9061376    28372.625 
  117000    2.6486506  0.023680237    3.9224924    28372.625 
  118000    2.6460394  0.023247152     3.895371    28372.625 
  119000     2.648022  0.023694542    3.8956567    28372.625 
  120000    2.6449652  0.023417776    3.9104872    28372.625 
  121000    2.6419164  0.023299413    3.9127042    28372.625 
  122000    2.6433973  0.024233675    3.9101438    28372.625 
  123000    2.6424307  0.024563066    3.9126611    28372.625 
  124000    2.6499213  0.023212748    3.9136288    28372.625 
  125000    2.6456261  0.024179817    3.9139261    28372.625 
  126000      2.65174  0.023443811    3.9164154    28372.625 
  127000    2.6503348  0.023972316    3.9034539    28372.625 
  128000    2.6490319  0.023263519    3.8880821    28372.625 
  129000    2.6393064  0.024085452    3.9120348    28372.625 
  130000    2.6476678  0.023340468    3.8942118    28372.625 
  131000    2.6493635  0.023616069    3.9105864    28372.625 
  132000    2.6441174  0.025759189    3.9299577    28372.625 
  133000    2.6364035  0.023314617    3.8992527    28372.625 
  134000    2.6516705  0.023173168    3.9180548    28372.625 
  135000    2.6515376  0.024231129    3.9062709    28372.625 
  136000     2.652977  0.023475934    3.9057141    28372.625 
  137000    2.6449918  0.023827557    3.9086424    28372.625 
  138000    2.6539054  0.023240397    3.9251486    28372.625 
  139000    2.6553773  0.024558394    3.9299721    28372.625 
  140000    2.6510243  0.023422375    3.9137947    28372.625 
  141000    2.6482588  0.023716403    3.9068569    28372.625 
  142000    2.6509267  0.023438993    3.9092374    28372.625 
  143000    2.6537623  0.023361937     3.914263    28372.625 
  144000    2.6477404  0.023295856    3.9166112    28372.625 
  145000    2.6371908  0.024912015    3.9164892    28372.625 
  146000    2.6479526  0.023579865    3.9179924    28372.625 
  147000    2.6522131  0.023561271     3.903679    28372.625 
  148000    2.6365525  0.023812986    3.9041673    28372.625 
  149000     2.642903  0.024161032    3.9102902    28372.625 
  150000     2.649663  0.023284105    3.9140445    28372.625 
  151000    2.6469137  0.023694573    3.9142836    28372.625 
  152000    2.6515956  0.023259862    3.8966487    28372.625 
  153000     2.648626  0.023252299    3.9152256    28372.625 
  154000    2.6447566  0.023418684    3.8993084    28372.625 
  155000    2.6479712  0.023649964    3.9137335    28372.625 
  156000    2.6486919  0.023397731    3.9032436    28372.625 
  157000     2.646537  0.023241045    3.8933123    28372.625 
  158000    2.6490096  0.023759124    3.9091714    28372.625 
  159000    2.6514422  0.023458975    3.9131318    28372.625 
  160000    2.6414953  0.023464037     3.899891    28372.625 
  161000    2.6388984  0.024842362    3.9053098    28372.625 
  162000    2.6478372  0.023157479     3.904896    28372.625 
  163000    2.6458481  0.023728471    3.8915994    28372.625 
  164000    2.6458638  0.023407535    3.8991177    28372.625 
  165000    2.6530048  0.023197845    3.9001011    28372.625 
  166000    2.6426065  0.023738945    3.8874148    28372.625 
  167000    2.6388274  0.024247861    3.9062473    28372.625 
  168000    2.6530017  0.025315677    3.9422999    28372.625 
  169000    2.6519617  0.023909455    3.9131579    28372.625 
  170000    2.6409821  0.023893601    3.9084488    28372.625 
  171000    2.6501626  0.023512268    3.8858067    28372.625 
  172000    2.6457415  0.023604374    3.8952136    28372.625 
  173000     2.647825  0.024480443    3.9116616    28372.625 
  174000    2.6524681  0.023878312    3.9123698    28372.625 
  175000    2.6503812  0.024376964    3.8977243    28372.625 
  176000     2.647467  0.023439712    3.9169181    28372.625 
  177000    2.6510681   0.02499449     3.918829    28372.625 
  178000    2.6499689  0.023467158    3.9042044    28372.625 
  179000    2.6522499  0.022996301    3.8880092    28372.625 
  180000    2.6545034  0.023287701     3.919128    28372.625 
  181000    2.6399685  0.024440199    3.9051141    28372.625 
  182000    2.6474988  0.023641012      3.89251    28372.625 
  183000    2.6516751  0.023413661     3.908007    28372.625 
  184000    2.6518154   0.02440572    3.9240512    28372.625 
  185000    2.6500197  0.023328049     3.909924    28372.625 
  186000    2.6433845  0.023637163    3.8949335    28372.625 
  187000    2.6434687  0.024846946    3.9111289    28372.625 
  188000    2.6505438  0.023466824     3.892595    28372.625 
  189000    2.6404008  0.023965587     3.907458    28372.625 
  190000    2.6522837  0.023235388    3.9136557    28372.625 
  191000    2.6539362  0.023625578     3.903372    28372.625 
  192000    2.6490285  0.023808216    3.9206847    28372.625 
  193000    2.6468716  0.023330601     3.908333    28372.625 
  194000    2.6449104  0.023759351    3.9152056    28372.625 
  195000    2.6444086  0.023360685    3.9125692    28372.625 
  196000    2.6384268  0.024527635    3.9140372    28372.625 
  197000    2.6510888  0.023706921    3.9057236    28372.625 
  198000    2.6464308  0.023919752    3.9072578    28372.625 
  199000    2.6482703  0.025186613    3.9379673    28372.625 
  200000    2.6460314  0.023192908    3.9051893    28372.625 
Loop time of 3.70785 on 1 procs for 200000 steps with 256 atoms

Pair  time (%) = 0.883165 (23.8188)
Neigh time (%) = 1.29604 (34.9541)
Comm  time (%) = 0.443151 (11.9517)
Outpt time (%) = 0.00661445 (0.178391)
Other time (%) = 1.07887 (29.097)

Nlocal:    256 ave 256 max 256 min
Histogram: 1 0 0 0 0 0 0 0 0 0
Nghost:    152 ave 152 max 152 min
Histogram: 1 0 0 0 0 0 0 0 0 0
Neighs:    113 ave 113 max 113 min
Histogram: 1 0 0 0 0 0 0 0 0 0

Total # of neighbors = 113
Ave neighs/atom = 0.441406
Neighbor list builds = 16189
Dangerous builds = 2287
#	run             	1000
	unfix 			1
	unfix 			2

#------------ NVE -----------------------------------------------------------------------------

	fix 			1 all nve
	timestep		${dt}
	timestep		0.0020000000000000000416
	thermo_style  		custom step temp press etotal vol
	thermo			1000
	run             	100000
Memory usage per processor = 1.67356 Mbytes
Step Temp Press TotEng Volume 
  200000    2.6460314  0.023192908    3.9051893    28372.625 
  201000    2.6442282  0.024033176    3.9051825    28372.625 
  202000    2.6465301  0.024006454    3.9051851    28372.625 
  203000    2.6426435  0.023309189    3.9051837    28372.625 
  204000    2.6457578  0.023541857     3.905181    28372.625 
  205000    2.6386553  0.023716046    3.9051835    28372.625 
  206000    2.6466144  0.024239377    3.9051563    28372.625 
  207000    2.6313432  0.024439304    3.9051825    28372.625 
  208000    2.6466817  0.023109315     3.905175    28372.625 
  209000    2.6456618  0.023602379    3.9051764    28372.625 
  210000    2.6315973  0.024496976    3.9051855    28372.625 
  211000     2.644919  0.024092714    3.9051711    28372.625 
  212000    2.6470841  0.023177035    3.9051681    28372.625 
  213000    2.6502747  0.023874088    3.9051727    28372.625 
  214000    2.6283497  0.024458308    3.9051954    28372.625 
  215000    2.6383178  0.024315004    3.9051935    28372.625 
  216000    2.6450232  0.023831685    3.9051785    28372.625 
  217000    2.6451928  0.023653048    3.9051688    28372.625 
  218000    2.6315942  0.023675539    3.9051762    28372.625 
  219000    2.6438887  0.024123468    3.9051535    28372.625 
  220000    2.6381072  0.024411331     3.905169    28372.625 
  221000    2.6459597  0.023369189    3.9051804    28372.625 
  222000    2.6466784  0.023264467    3.9051872    28372.625 
  223000    2.6522369   0.02480463    3.9051785    28372.625 
  224000    2.6518121  0.023780439    3.9051961    28372.625 
  225000    2.6329619  0.024395561    3.9052129    28372.625 
  226000    2.6466794  0.023955364     3.905153    28372.625 
  227000    2.6455086  0.023106604    3.9051844    28372.625 
  228000    2.6432257  0.023831962     3.905179    28372.625 
  229000    2.6432772  0.023263034    3.9051849    28372.625 
  230000    2.6366758  0.024174185    3.9051753    28372.625 
  231000    2.6405271  0.024346653    3.9051548    28372.625 
  232000     2.642683   0.02386193    3.9051648    28372.625 
  233000    2.6401957  0.023757077      3.90518    28372.625 
  234000    2.6512317  0.023383455    3.9051787    28372.625 
  235000    2.6511861  0.023362826     3.905184    28372.625 
  236000    2.6449574  0.023183633    3.9051839    28372.625 
  237000    2.6485942  0.023476288    3.9051741    28372.625 
  238000    2.6549013  0.024183697    3.9051766    28372.625 
  239000    2.6414255   0.02380982    3.9051669    28372.625 
  240000    2.6442789  0.023991986    3.9051704    28372.625 
  241000    2.6412366  0.023274814    3.9051613    28372.625 
  242000    2.6360898  0.023785405     3.905165    28372.625 
  243000    2.6508899   0.02315503    3.9051611    28372.625 
  244000    2.6393153  0.023171255    3.9051678    28372.625 
  245000    2.6346362  0.023616551      3.90516    28372.625 
  246000    2.6423031  0.023170546    3.9051688    28372.625 
  247000    2.6184538  0.024447563    3.9051959    28372.625 
  248000    2.6503771  0.023241681    3.9051682    28372.625 
  249000    2.6407066  0.024025424     3.905182    28372.625 
  250000    2.6498203  0.023598778    3.9051868    28372.625 
  251000    2.6476063  0.023360266    3.9051864    28372.625 
  252000    2.6495971  0.023576053    3.9051843    28372.625 
  253000    2.6369003  0.024027649    3.9051965    28372.625 
  254000    2.6433238  0.023501126    3.9051542    28372.625 
  255000    2.6461115   0.02319664    3.9051904    28372.625 
  256000    2.6396235  0.023669346     3.905183    28372.625 
  257000    2.6466585  0.023438476    3.9051611    28372.625 
  258000    2.6560844  0.023398067    3.9051827    28372.625 
  259000     2.646723  0.023976167    3.9051711    28372.625 
  260000    2.6428063  0.024029787    3.9051815    28372.625 
  261000    2.6514817  0.023784378    3.9051842    28372.625 
  262000    2.6431944   0.02321904    3.9051834    28372.625 
  263000    2.6430498  0.023277621      3.90519    28372.625 
  264000    2.6487117  0.023947952    3.9051871    28372.625 
  265000    2.6425034  0.023112922    3.9051819    28372.625 
  266000    2.6350351  0.024345939    3.9051736    28372.625 
  267000    2.6409051   0.02350284     3.905171    28372.625 
  268000     2.632397  0.024453804    3.9051557    28372.625 
  269000    2.6332383  0.023611107    3.9051691    28372.625 
  270000     2.640468  0.023573669    3.9051826    28372.625 
  271000    2.6361179  0.023125944    3.9051926    28372.625 
  272000    2.6335665  0.025327327    3.9051929    28372.625 
  273000    2.6432709  0.023818351    3.9051737    28372.625 
  274000    2.6445315  0.023401322     3.905185    28372.625 
  275000    2.6469148  0.024078958    3.9051938    28372.625 
  276000     2.656749  0.023431736    3.9051893    28372.625 
  277000    2.6487419  0.024290252     3.905186    28372.625 
  278000     2.643401  0.023983611    3.9051881    28372.625 
  279000    2.6531049  0.023749703    3.9051555    28372.625 
  280000    2.6518911  0.023123958    3.9051822    28372.625 
  281000    2.6517714  0.023191119    3.9051875    28372.625 
  282000    2.6609198  0.023234342    3.9051792    28372.625 
  283000    2.6503288  0.023533088    3.9051888    28372.625 
  284000    2.6461549  0.023794716     3.905186    28372.625 
  285000     2.650269  0.023269589    3.9051818    28372.625 
  286000    2.6454151  0.023527995    3.9051914    28372.625 
  287000    2.6421395  0.023949586    3.9051949    28372.625 
  288000    2.6475205  0.023838628    3.9051717    28372.625 
  289000    2.6437633  0.023377151     3.905183    28372.625 
  290000    2.6433188   0.02330372    3.9051857    28372.625 
  291000    2.6465621   0.02313119    3.9051865    28372.625 
  292000    2.6533798  0.023213025    3.9051732    28372.625 
  293000    2.6449691  0.023305904    3.9051788    28372.625 
  294000     2.646301  0.023931728    3.9051779    28372.625 
  295000    2.6477295  0.023397491    3.9051674    28372.625 
  296000    2.6453612  0.023232139    3.9051795    28372.625 
  297000    2.6335351  0.023637759    3.9051814    28372.625 
  298000    2.6446055  0.023382567    3.9051813    28372.625 
  299000    2.6461084  0.023829405    3.9051615    28372.625 
  300000    2.6437313  0.023801759    3.9051616    28372.625 
Loop time of 1.66691 on 1 procs for 100000 steps with 256 atoms

Pair  time (%) = 0.352661 (21.1565)
Neigh time (%) = 0.641507 (38.4847)
Comm  time (%) = 0.218038 (13.0803)
Outpt time (%) = 0.0032382 (0.194263)
Other time (%) = 0.451471 (27.0842)

Nlocal:    256 ave 256 max 256 min
Histogram: 1 0 0 0 0 0 0 0 0 0
Nghost:    167 ave 167 max 167 min
Histogram: 1 0 0 0 0 0 0 0 0 0
Neighs:    101 ave 101 max 101 min
Histogram: 1 0 0 0 0 0 0 0 0 0

Total # of neighbors = 101
Ave neighs/atom = 0.394531
Neighbor list builds = 8223
Dangerous builds = 737
#	run             	10000
	unfix 			1

#------------ kappa -------------------------------------------------------------------------
log 	log_kappa_${iseed}.lammps
log 	log_kappa_8.lammps
