
#------------ NVE rescale ---------------------------------------------------------------------

	velocity 		all create ${T_run} ${seed} rot yes dist gaussian
	velocity 		all create 2.6455576526946114058 ${seed} rot yes dist gaussian
	velocity 		all create 2.6455576526946114058 77777 rot yes dist gaussian

	fix 			1 all nve
	fix 			2 all temp/rescale 1 ${T_run} ${T_run} 0.01 1.0
	fix 			2 all temp/rescale 1 2.6455576526946114058 ${T_run} 0.01 1.0
	fix 			2 all temp/rescale 1 2.6455576526946114058 2.6455576526946114058 0.01 1.0
	timestep		${dt}
	timestep		0.0020000000000000000416
	thermo_style  		custom step temp press etotal vol
	thermo			1000
	run             	200000
Memory usage per processor = 1.67356 Mbytes
Step Temp Press TotEng Volume 
       0    2.6455577  0.023669049   -1.5687558    28372.625 
    1000    2.6455516  0.020115218    3.0284801    28372.625 
    2000    2.6450078  0.020450761    3.2270145    28372.625 
    3000    2.6455577  0.022203424    3.2858325    28372.625 
    4000    2.6459753  0.022810295    3.3990833    28372.625 
    5000    2.6511873  0.022405974    3.4077876    28372.625 
    6000    2.6391627  0.021959233    3.4846607    28372.625 
    7000    2.6529477  0.021983375    3.5402516    28372.625 
    8000     2.655404  0.023318128    3.5994758    28372.625 
    9000    2.6386584  0.023861843    3.6766849    28372.625 
   10000    2.6493533  0.022835225    3.7075308    28372.625 
   11000    2.6378482  0.023002522    3.7552412    28372.625 
   12000    2.6507152  0.022459079    3.7862183    28372.625 
   13000    2.6491696  0.024990474    3.8395952    28372.625 
   14000    2.6448038   0.02351363    3.8241929    28372.625 
   15000    2.6395477  0.024505423    3.8423937    28372.625 
   16000    2.6515296  0.023628941    3.8593752    28372.625 
   17000      2.65236  0.023676674    3.8560849    28372.625 
   18000    2.6449322  0.023867338     3.871921    28372.625 
   19000    2.6528354  0.023895405    3.8649598    28372.625 
   20000     2.645953  0.022772792     3.878439    28372.625 
   21000    2.6455535  0.024190463    3.9101856    28372.625 
   22000     2.653446  0.023949218    3.8967684    28372.625 
   23000     2.652639  0.023287394    3.8973724    28372.625 
   24000    2.6416467   0.02312707     3.898925    28372.625 
   25000    2.6466447  0.023287104    3.8964311    28372.625 
   26000     2.653274  0.023239028    3.8979907    28372.625 
   27000    2.6519527  0.024302605    3.9148323    28372.625 
   28000    2.6477065  0.024235729    3.9172574    28372.625 
   29000    2.6460276  0.024057926    3.9059744    28372.625 
   30000    2.6490631  0.023821498     3.916104    28372.625 
   31000    2.6510911  0.023474011    3.9207639    28372.625 
   32000     2.652447  0.024083422    3.9245478    28372.625 
   33000     2.651555  0.023789632    3.8979421    28372.625 
   34000    2.6452736  0.024188391    3.9019915    28372.625 
   35000    2.6461009   0.02352223     3.914417    28372.625 
   36000     2.653555  0.024530047    3.9037639    28372.625 
   37000    2.6425761  0.024157661    3.9080245    28372.625 
   38000    2.6464555  0.023161907    3.9093343    28372.625 
   39000    2.6391248  0.024040984    3.9121569    28372.625 
   40000    2.6550354  0.023579917    3.9268307    28372.625 
   41000    2.6533768  0.023316899    3.9142188    28372.625 
   42000    2.6545499   0.02352437    3.9159486    28372.625 
   43000    2.6464493  0.023122915    3.8851016    28372.625 
   44000    2.6435319  0.024065559    3.8880871    28372.625 
   45000    2.6471082  0.024345782    3.9120832    28372.625 
   46000    2.6491861  0.023368511     3.913995    28372.625 
   47000    2.6419424  0.024016005    3.8967805    28372.625 
   48000     2.650526  0.023568692      3.91148    28372.625 
   49000    2.6487858   0.02423929    3.8786713    28372.625 
   50000    2.6449778  0.025324352      3.91903    28372.625 
   51000    2.6429499  0.023084122    3.9059016    28372.625 
   52000     2.636234  0.023645396    3.9052531    28372.625 
   53000    2.6449129  0.024470207     3.905483    28372.625 
   54000    2.6489649  0.024573345    3.9208831    28372.625 
   55000     2.650892   0.02334398    3.9190888    28372.625 
   56000    2.6543645   0.02333863    3.9172217    28372.625 
   57000    2.6510089  0.023273625    3.9002474    28372.625 
   58000    2.6523995   0.02315182    3.9024986    28372.625 
   59000    2.6452464  0.023181028    3.9036578    28372.625 
   60000    2.6471219   0.02422202    3.9337606    28372.625 
   61000    2.6436347  0.024567602    3.9191748    28372.625 
   62000     2.639235  0.025614947    3.9189356    28372.625 
   63000    2.6476548  0.026150553    3.9497626    28372.625 
   64000    2.6459074  0.024049838    3.9088594    28372.625 
   65000     2.636699  0.025463668     3.912459    28372.625 
   66000    2.6520512  0.023692794    3.9266801    28372.625 
   67000     2.646221  0.023819004    3.8983961    28372.625 
   68000    2.6418768  0.024180037     3.922364    28372.625 
   69000    2.6446248  0.023451557    3.9053144    28372.625 
   70000    2.6430232  0.023239469    3.9216456    28372.625 
   71000    2.6518111  0.024520685    3.9237509    28372.625 
   72000    2.6467451  0.024344145    3.9171972    28372.625 
   73000     2.653894  0.023418147    3.9174949    28372.625 
   74000     2.651224   0.02372344    3.9351666    28372.625 
   75000    2.6481448  0.023651517     3.911162    28372.625 
   76000    2.6442484  0.024520723    3.9167034    28372.625 
   77000    2.6465597   0.02321471    3.9044637    28372.625 
   78000    2.6544821  0.023545166    3.9005643    28372.625 
   79000    2.6444449  0.023989359     3.904421    28372.625 
   80000    2.6484048  0.024173448    3.9280284    28372.625 
   81000    2.6501862  0.024244325    3.8978234    28372.625 
   82000    2.6458823  0.023317682    3.9009919    28372.625 
   83000    2.6548751  0.023364855    3.9133521    28372.625 
   84000     2.649326  0.023247932    3.8981553    28372.625 
   85000    2.6517988   0.02336283    3.9001004    28372.625 
   86000    2.6518382  0.023596613     3.906259    28372.625 
   87000    2.6429891  0.026714654    3.9599887    28372.625 
   88000    2.6501214  0.023553072    3.9113439    28372.625 
   89000    2.6495695  0.023921306    3.8985762    28372.625 
   90000    2.6504089  0.023614905    3.9013265    28372.625 
   91000    2.6405356   0.02457267    3.9194714    28372.625 
   92000    2.6513361  0.023246499    3.8884653    28372.625 
   93000    2.6462264  0.023243561     3.890283    28372.625 
   94000    2.6491547  0.023205788    3.9085871    28372.625 
   95000    2.6535962  0.023823519    3.9116549    28372.625 
   96000    2.6479861  0.023461995    3.9114492    28372.625 
   97000      2.65043  0.023924595    3.9142124    28372.625 
   98000      2.64901  0.024489974    3.9201251    28372.625 
   99000     2.647943  0.024218698    3.9092703    28372.625 
  100000    2.6442737  0.025265149    3.9349059    28372.625 
  101000    2.6544588  0.023122783    3.9084957    28372.625 
  102000    2.6374974  0.024100261    3.8940182    28372.625 
  103000    2.6422449  0.024011927    3.9118462    28372.625 
  104000    2.6455577  0.025355336     3.949301    28372.625 
  105000    2.6535557  0.023763586    3.9177659    28372.625 
  106000    2.6429271  0.023849924    3.9028436    28372.625 
  107000    2.6394468  0.023979471    3.9037801    28372.625 
  108000    2.6553658  0.023230136    3.9059077    28372.625 
  109000       2.6473  0.023470074    3.9055544    28372.625 
  110000    2.6536767  0.023475656    3.9064451    28372.625 
  111000    2.6368657  0.024542879    3.9100521    28372.625 
  112000     2.645909   0.02343294    3.9121228    28372.625 
  113000    2.6374234  0.023519912    3.9018019    28372.625 
  114000    2.6450036  0.023500904    3.9026753    28372.625 
  115000     2.655187  0.023872915    3.9032729    28372.625 
  116000    2.6486015  0.023931613      3.91925    28372.625 
  117000    2.6413259  0.024531079    3.9035499    28372.625 
  118000    2.6463757  0.023321611    3.9236971    28372.625 
  119000    2.6442826  0.023566785    3.9037761    28372.625 
  120000    2.6552196  0.024354982    3.9066136    28372.625 
  121000    2.6399915    0.0242076    3.8772346    28372.625 
  122000    2.6499735  0.024072306    3.9116165    28372.625 
  123000    2.6445012  0.023643863    3.9021281    28372.625 
  124000    2.6435004   0.02510873     3.921412    28372.625 
  125000    2.6552623  0.023732264    3.9106166    28372.625 
  126000    2.6479045  0.023194196    3.9104023    28372.625 
  127000     2.650008  0.024003329     3.912452    28372.625 
  128000    2.6532419  0.023209369    3.8954385    28372.625 
  129000    2.6498108  0.023609615    3.8976695    28372.625 
  130000    2.6532166  0.023728066    3.9150987    28372.625 
  131000    2.6529552  0.023857807    3.9204629    28372.625 
  132000    2.6487132  0.023664566    3.9224388    28372.625 
  133000    2.6441545  0.023665287    3.9040394    28372.625 
  134000    2.6455492  0.023382906    3.9112852    28372.625 
  135000    2.6501256  0.025031121     3.931273    28372.625 
  136000    2.6408335  0.023950486     3.902207    28372.625 
  137000    2.6477915  0.023419476    3.9195383    28372.625 
  138000    2.6409491  0.024431737    3.9083214    28372.625 
  139000    2.6458828  0.023564024    3.9103669    28372.625 
  140000    2.6471445  0.023053619    3.9125617    28372.625 
  141000     2.637219  0.025595604    3.9294101    28372.625 
  142000    2.6436407  0.024767537    3.9307134    28372.625 
  143000    2.6492544  0.023488884    3.9151904    28372.625 
  144000    2.6468711  0.024183296    3.9354708    28372.625 
  145000    2.6428829  0.024321126    3.9072857    28372.625 
  146000    2.6423249  0.022986331    3.8960425    28372.625 
  147000    2.6384492  0.023575129    3.9153291    28372.625 
  148000    2.6471895  0.023391976    3.9034955    28372.625 
  149000    2.6492619  0.023383322    3.9043987    28372.625 
  150000    2.6455577  0.024116068    3.8902148    28372.625 
  151000    2.6479223  0.023200495    3.8994669    28372.625 
  152000    2.6420574  0.023219827    3.8872922    28372.625 
  153000    2.6439972   0.02375717    3.9068498    28372.625 
  154000      2.64253   0.02361425    3.9065185    28372.625 
  155000    2.6507788  0.023445907     3.906859    28372.625 
  156000    2.6458151  0.023570253    3.8961461    28372.625 
  157000    2.6490726  0.023584043    3.8979525    28372.625 
  158000    2.6488203  0.023444201    3.8934922    28372.625 
  159000    2.6464782  0.024276752     3.911838    28372.625 
  160000    2.6512475  0.023368504    3.9110552    28372.625 
  161000    2.6472428  0.023410983    3.8971585    28372.625 
  162000     2.654299  0.023188267    3.9060366    28372.625 
  163000    2.6496832  0.023464991    3.9055904    28372.625 
  164000    2.6437664  0.024290888    3.9066713    28372.625 
  165000    2.6508927  0.023698037    3.9058314    28372.625 
  166000    2.6429619   0.02412898    3.9097398    28372.625 
  167000     2.643755   0.02390238    3.8912325    28372.625 
  168000    2.6500441  0.023773077     3.922239    28372.625 
  169000    2.6409728  0.023820617    3.9202265    28372.625 
  170000    2.6366453  0.024960753    3.9022858    28372.625 
  171000    2.6459134  0.024178566    3.9213598    28372.625 
  172000    2.6396528   0.02408053    3.9008563    28372.625 
  173000     2.647279  0.023373926    3.9164053    28372.625 
  174000    2.6458329  0.023545437     3.902713    28372.625 
  175000    2.6503473  0.023965191    3.9184128    28372.625 
  176000    2.6458097  0.023155933    3.9057241    28372.625 
  177000    2.6514018  0.023461251    3.9086561    28372.625 
  178000    2.6473902  0.023744914    3.8868069    28372.625 
  179000    2.6514077  0.023561244    3.9221327    28372.625 
  180000    2.6446472  0.024166237    3.8984825    28372.625 
  181000    2.6526547   0.02345753    3.9137474    28372.625 
  182000    2.6478742  0.023466012    3.9172688    28372.625 
  183000    2.6546382  0.023771089     3.921421    28372.625 
  184000    2.6433052  0.024563245    3.9099842    28372.625 
  185000    2.6370698   0.02447492     3.893939    28372.625 
  186000    2.6494333  0.023168192    3.9091828    28372.625 
  187000    2.6488846  0.023943305    3.9068786    28372.625 
  188000    2.6538592  0.023554705     3.910003    28372.625 
  189000    2.6468113  0.024364622    3.8950471    28372.625 
  190000    2.6462021  0.023220308    3.8810485    28372.625 
  191000    2.6481989  0.023228043    3.9004253    28372.625 
  192000    2.6543237  0.023646344    3.9297575    28372.625 
  193000    2.6455577  0.024550634    3.9309813    28372.625 
  194000    2.6484176  0.023717275    3.8996872    28372.625 
  195000    2.6513658  0.023384516    3.9162443    28372.625 
  196000    2.6540503  0.023927415    3.9201297    28372.625 
  197000    2.6455577  0.024325729    3.9206877    28372.625 
  198000    2.6489262  0.023066348    3.8952582    28372.625 
  199000    2.6492306  0.023510325    3.9046598    28372.625 
  200000    2.6464259  0.023256918    3.9028698    28372.625 
Loop time of 3.71259 on 1 procs for 200000 steps with 256 atoms

Pair  time (%) = 0.857666 (23.1016)
Neigh time (%) = 1.29935 (34.9984)
Comm  time (%) = 0.450239 (12.1274)
Outpt time (%) = 0.00784636 (0.211345)
Other time (%) = 1.09749 (29.5613)

Nlocal:    256 ave 256 max 256 min
Histogram: 1 0 0 0 0 0 0 0 0 0
Nghost:    173 ave 173 max 173 min
Histogram: 1 0 0 0 0 0 0 0 0 0
Neighs:    104 ave 104 max 104 min
Histogram: 1 0 0 0 0 0 0 0 0 0

Total # of neighbors = 104
Ave neighs/atom = 0.40625
Neighbor list builds = 16061
Dangerous builds = 1059
#	run             	1000
	unfix 			1
	unfix 			2

#------------ NVE -----------------------------------------------------------------------------

	fix 			1 all nve
	timestep		${dt}
	timestep		0.0020000000000000000416
	thermo_style  		custom step temp press etotal vol
	thermo			1000
	run             	100000
Memory usage per processor = 1.67356 Mbytes
Step Temp Press TotEng Volume 
  200000    2.6464259  0.023256918    3.9028698    28372.625 
  201000    2.6295128  0.024812082     3.902894    28372.625 
  202000    2.6488834  0.023779774    3.9028767    28372.625 
  203000    2.6349866   0.02342782    3.9028784    28372.625 
  204000    2.6424166  0.023225196    3.9028836    28372.625 
  205000     2.647761  0.023754153      3.90289    28372.625 
  206000    2.6476494  0.023511277    3.9028939    28372.625 
  207000    2.6393507  0.023610613    3.9028875    28372.625 
  208000    2.6394129  0.023354104    3.9028847    28372.625 
  209000    2.6597734  0.023912428    3.9028757    28372.625 
  210000    2.6506147  0.023226453    3.9028832    28372.625 
  211000    2.6344415  0.023876254    3.9028762    28372.625 
  212000    2.6323812  0.024096402    3.9028772    28372.625 
  213000    2.6213029  0.025535079    3.9028958    28372.625 
  214000    2.6443373  0.023922453    3.9028607    28372.625 
  215000    2.6428604   0.02368219    3.9028618    28372.625 
  216000    2.6386243  0.024180797    3.9028716    28372.625 
  217000    2.6441957  0.023350329    3.9028542    28372.625 
  218000    2.6496108  0.023387259    3.9028586    28372.625 
  219000    2.6350464  0.024018273    3.9028562    28372.625 
  220000    2.6459988  0.023784856    3.9028375    28372.625 
  221000    2.6455827  0.023496473    3.9028574    28372.625 
  222000     2.641234  0.023662045    3.9028473    28372.625 
  223000    2.6439342  0.024145096    3.9028479    28372.625 
  224000    2.6380761  0.023246898    3.9028543    28372.625 
  225000    2.6451899  0.023440258    3.9028544    28372.625 
  226000    2.6413217  0.023259132    3.9028412    28372.625 
  227000    2.6445065  0.024426322    3.9028518    28372.625 
  228000    2.6572984  0.023525496     3.902857    28372.625 
  229000    2.6578821  0.023998381    3.9028655    28372.625 
  230000    2.6444883  0.023194068    3.9028608    28372.625 
  231000    2.6498926  0.023385351    3.9028626    28372.625 
  232000    2.6379738  0.023425323    3.9028651    28372.625 
  233000    2.6623327  0.023477337    3.9028675    28372.625 
  234000    2.6382005  0.023120462    3.9028746    28372.625 
  235000     2.631368  0.023378017     3.902876    28372.625 
  236000    2.6382172  0.024066139     3.902873    28372.625 
  237000     2.635409  0.023697287    3.9028767    28372.625 
  238000    2.6338207  0.023285085    3.9028868    28372.625 
  239000    2.6392529  0.023987205    3.9028768    28372.625 
  240000    2.6436409  0.024172811    3.9028768    28372.625 
  241000    2.6453957  0.023561961    3.9028756    28372.625 
  242000    2.6365027   0.02314588     3.902881    28372.625 
  243000    2.6361463  0.023271635     3.902879    28372.625 
  244000    2.6394752   0.02397683     3.902887    28372.625 
  245000     2.643606  0.023620076    3.9028836    28372.625 
  246000     2.632437  0.024256229    3.9028846    28372.625 
  247000    2.6330293   0.02380331    3.9028884    28372.625 
  248000    2.6419277  0.023365005    3.9028748    28372.625 
  249000    2.6351766   0.02358281    3.9028618    28372.625 
  250000    2.6425598  0.023286648    3.9028646    28372.625 
  251000    2.6524058  0.023068706    3.9028647    28372.625 
  252000    2.6502649  0.023874348    3.9028506    28372.625 
  253000    2.6457232  0.023077396      3.90286    28372.625 
  254000    2.6422631   0.02340426    3.9028525    28372.625 
  255000    2.6433961  0.023137902    3.9028555    28372.625 
  256000    2.6444677  0.023383649    3.9028619    28372.625 
  257000    2.6423754  0.024800669    3.9028735    28372.625 
  258000    2.6365561  0.023109375    3.9028677    28372.625 
  259000    2.6384968  0.024400764    3.9028791    28372.625 
  260000    2.6453806  0.024349901    3.9028714    28372.625 
  261000      2.63467   0.02312954     3.902869    28372.625 
  262000     2.650794  0.023194502     3.902876    28372.625 
  263000    2.6506111  0.023263471    3.9028741    28372.625 
  264000    2.6379479  0.023660888    3.9028858    28372.625 
  265000    2.6504027  0.023286052    3.9028755    28372.625 
  266000    2.6359479  0.023438173    3.9028865    28372.625 
  267000     2.635577  0.023958397    3.9028844    28372.625 
  268000    2.6500548  0.023569186    3.9028781    28372.625 
  269000    2.6458044  0.024518039    3.9028846    28372.625 
  270000    2.6383774  0.024041267    3.9028604    28372.625 
  271000    2.6511025  0.023639903     3.902903    28372.625 
  272000    2.6355801   0.02329703    3.9029113    28372.625 
  273000    2.6410414  0.023751052    3.9029054    28372.625 
  274000    2.6468029  0.023644456    3.9028682    28372.625 
  275000    2.6366194  0.023794291    3.9029016    28372.625 
  276000    2.6343679  0.023646436    3.9028891    28372.625 
  277000    2.6482345  0.024099928    3.9029116    28372.625 
  278000    2.6447931  0.023774286    3.9028866    28372.625 
  279000    2.6397925  0.023501869    3.9029023    28372.625 
  280000    2.6401679   0.02319877    3.9029027    28372.625 
  281000    2.6462096  0.024200892     3.902911    28372.625 
  282000    2.6441874  0.023285806    3.9029019    28372.625 
  283000    2.6413234  0.023131284    3.9028992    28372.625 
  284000    2.6451699  0.024129373    3.9028961    28372.625 
  285000    2.6523571  0.023965599    3.9028914    28372.625 
  286000    2.6439135  0.023405885    3.9029038    28372.625 
  287000    2.6480527  0.023555432    3.9028787    28372.625 
  288000    2.6401651  0.023839556    3.9028926    28372.625 
  289000    2.6389781   0.02425616    3.9028862    28372.625 
  290000    2.6301246  0.024316484    3.9028929    28372.625 
  291000    2.6416795  0.023764898    3.9028713    28372.625 
  292000      2.62661  0.023997669    3.9028833    28372.625 
  293000    2.6403361  0.023912615    3.9028738    28372.625 
  294000    2.6365461  0.023988886    3.9028699    28372.625 
  295000    2.6455921  0.024004658    3.9028878    28372.625 
  296000     2.645309  0.023456663    3.9028782    28372.625 
  297000    2.6334489  0.023721468    3.9028767    28372.625 
  298000    2.6477876  0.024036273    3.9028731    28372.625 
  299000     2.647443  0.023466625    3.9028662    28372.625 
  300000    2.6403622      0.02334    3.9028617    28372.625 
Loop time of 1.64655 on 1 procs for 100000 steps with 256 atoms

Pair  time (%) = 0.358492 (21.7723)
Neigh time (%) = 0.614243 (37.3049)
Comm  time (%) = 0.220916 (13.4169)
Outpt time (%) = 0.00362301 (0.220037)
Other time (%) = 0.449274 (27.2858)

Nlocal:    256 ave 256 max 256 min
Histogram: 1 0 0 0 0 0 0 0 0 0
Nghost:    149 ave 149 max 149 min
Histogram: 1 0 0 0 0 0 0 0 0 0
Neighs:    98 ave 98 max 98 min
Histogram: 1 0 0 0 0 0 0 0 0 0

Total # of neighbors = 98
Ave neighs/atom = 0.382812
Neighbor list builds = 7782
Dangerous builds = 3
#	run             	10000
	unfix 			1

#------------ kappa -------------------------------------------------------------------------
log 	log_kappa_${iseed}.lammps
log 	log_kappa_7.lammps
