	reset_timestep  	0
	fix 			1 all nve
	compute   		myKE all ke/atom
	compute   		myPE all pe/atom
	compute   		myStress all stress/atom virial
	compute   		flux all heat/flux myKE myPE myStress
	variable  		Jx equal c_flux[1]/vol
	variable  		Jy equal c_flux[2]/vol
	variable  		Jz equal c_flux[3]/vol
	fix       		JJ all ave/correlate $s $p $d c_flux[1] c_flux[2] c_flux[3] type auto file J0Jt_${iseed}.dat ave running
	fix       		JJ all ave/correlate 5 $p $d c_flux[1] c_flux[2] c_flux[3] type auto file J0Jt_${iseed}.dat ave running
	fix       		JJ all ave/correlate 5 100000 $d c_flux[1] c_flux[2] c_flux[3] type auto file J0Jt_${iseed}.dat ave running
	fix       		JJ all ave/correlate 5 100000 500000 c_flux[1] c_flux[2] c_flux[3] type auto file J0Jt_${iseed}.dat ave running
	fix       		JJ all ave/correlate 5 100000 500000 c_flux[1] c_flux[2] c_flux[3] type auto file J0Jt_6.dat ave running
#	fix       		JJ all ave/correlate $s $p $d c_flux[1] c_flux[2] c_flux[3] type auto ave running
#	dump			JJ all custom 1000000 J0Jt.dat f_JJ[3] f_JJ[4] f_JJ[5]
	compute 		myDis all msd
	thermo_style 		custom step temp press vol c_myDis[4] v_Jx v_Jy v_Jz
	thermo			1000
	timestep		${dt}
	timestep		0.0020000000000000000416
	run			1000000
Memory usage per processor = 3.6416 Mbytes
Step Temp Press Volume myDis[4] Jx Jy Jz 
       0    2.4771273  0.002278429    284904.75            0 0.00016618032 -0.00021100718 -7.494877e-05 
    1000    2.4793001 0.0022134654    284904.75    29.418721 0.00030662083 -0.00011865737 -0.00014272919 
    2000    2.4807993 0.0022110203    284904.75    116.92434 0.00044950642 -3.1237816e-05 -0.00015953475 
    3000    2.4822915 0.0022152168    284904.75    261.16239 0.00054530203 2.8745636e-05 -0.00038592924 
    4000    2.4835982 0.0022672874    284904.75    458.66123 0.00044848226 8.5524888e-05 -0.00035272647 
    5000    2.4795147 0.0022129604    284904.75     707.7479 0.00043299749 -1.2488564e-05 -0.00035230996 
    6000    2.4794966 0.0022132474    284904.75    1010.6411 0.00044090148 -2.0135993e-06 -0.00035711198 
    7000    2.4831051 0.0022169504    284904.75    1367.7377 0.00043049628 -7.8870071e-05 -0.00027203438 
    8000    2.4795913  0.002214069    284904.75      1775.59 0.00038494755 -0.0001400013 -0.00029054431 
    9000    2.4785163  0.002214478    284904.75    2232.2824 0.00037660894 -0.00012978063 -0.00027954441 
   10000     2.478406 0.0022150356    284904.75    2735.7449 0.00043382818 -7.6634054e-05 -0.00026090026 
   11000    2.4786765 0.0022587402    284904.75    3290.2541 0.00046309109 -0.00032554853 -0.00015669088 
   12000    2.4797161 0.0022132054    284904.75    3889.9723 0.00044970944 -4.5948682e-05 -0.00016605679 
   13000    2.4810296 0.0022109291    284904.75    4537.5033 0.00042639982 -2.4531678e-05 -0.00014970562 
   14000    2.4850317  0.002209478    284904.75    5241.2014 0.00038619276 -2.1228587e-05 -0.00023106963 
   15000    2.4809268 0.0022115036    284904.75    5990.8108 0.00042452472 1.7639538e-05 -0.00025850908 
   16000    2.4783877 0.0022149493    284904.75    6793.9646 0.00042995921 -3.6420327e-06 -0.00027378022 
   17000    2.4793431 0.0022132785    284904.75    7647.6363 0.00034653429 5.8307808e-05 -0.00024020785 
   18000    2.4813245 0.0022129866    284904.75    8549.2103 0.00034617694 5.1004133e-05 -0.00024816833 
   19000    2.4855087 0.0022285282    284904.75    9507.3217 0.00035377518 2.8650515e-05 -0.00025295376 
   20000    2.4807623 0.0022148491    284904.75    10511.046 0.00026115151 5.0496108e-05 -2.2370163e-05 
   21000    2.4774108 0.0022168764    284904.75    11566.593 0.00024734574 0.00013103565 -5.3996498e-05 
   22000    2.4814776 0.0022110485    284904.75    12666.115 0.00015600704 0.00013756823 -0.00012140945 
   23000    2.4803962 0.0022132328    284904.75    13796.164 0.00016842099 0.0001726392 -0.00013753887 
   24000    2.4801636 0.0022121269    284904.75    14974.795 0.00014534379 0.00018454389 -0.00014555466 
   25000    2.4793758 0.0022740645    284904.75    16187.296 0.00013768919 0.00026530875 -0.00019446673 
   26000    2.4811822 0.0022163309    284904.75    17423.478 4.5050456e-05 0.00027024842 3.3803555e-05 
   27000    2.4788827 0.0022142817    284904.75    18695.262 2.6349905e-05 0.00030494912 4.9180298e-05 
   28000     2.480518 0.0022111978    284904.75    20013.919 0.00011098417 0.00029448402 7.7127964e-05 
   29000    2.4797604 0.0022130402    284904.75    21366.332 5.372132e-05 0.00043600905 8.4958413e-05 
   30000    2.4796535 0.0022134968    284904.75    22770.801 5.6741906e-05 0.00038758419 8.5092066e-05 
   31000    2.4835348 0.0022132485    284904.75    24228.826 2.4852612e-05 0.00040701458 9.270101e-05 
   32000    2.4848109 0.0022095399    284904.75    25704.069 -4.44521e-05 0.0003531832 0.00011018318 
   33000    2.4823182 0.0022174701    284904.75    27213.346 -3.3628641e-05 0.00045265903 0.00013358575 
   34000    2.4797722 0.0022129268    284904.75    28756.887 -9.4240182e-06 0.00051267083 0.00014420374 
   35000    2.4793228 0.0022134785    284904.75    30339.353 1.2621058e-05 0.00051535997 0.0001085169 
   36000    2.4787293 0.0022146564    284904.75    31948.028 2.1900986e-05 0.00048612234 4.817304e-06 
   37000     2.478361 0.0022146379    284904.75     33567.92 -2.7767365e-05 0.00047835729 1.1335199e-05 
   38000    2.4785661  0.002214243    284904.75    35218.083 -1.3933469e-05 0.00050212358 7.631467e-05 
   39000    2.4795926 0.0022154006    284904.75    36923.204 -3.3530023e-05 0.00050054879 8.6638811e-05 
   40000    2.4833503 0.0022102736    284904.75    38677.209 -9.4380758e-06 0.00056349093 7.1026224e-05 
   41000    2.4813323 0.0022106455    284904.75    40448.691 -2.6924136e-05 0.00046803211 0.00012567677 
   42000    2.4791742 0.0022137514    284904.75    42251.847 -4.7659368e-05 0.00042951035 0.00010506996 
   43000    2.4807259  0.002255506    284904.75    44043.405 7.5292188e-06 0.00042966098 0.00019709244 
   44000     2.480869 0.0022160621    284904.75     45833.28 -1.6961591e-05 0.00036038283 5.1474238e-05 
   45000    2.4800771  0.002212521    284904.75    47637.382 -3.9336307e-05 0.00036490735 -7.18004e-06 
   46000    2.4786075 0.0022148628    284904.75    49465.868 -6.1183719e-05 0.00035304329 -1.596908e-06 
   47000    2.4780191 0.0022153075    284904.75    51348.135 -5.0992367e-05 0.00038046186 3.0898746e-06 
   48000    2.4782212 0.0022150395    284904.75    53250.741 -4.97343e-05 0.0004428511 -3.6191979e-05 
   49000    2.4807472  0.002211015    284904.75    55141.494 -3.8155275e-05 0.00045731288 -2.9290219e-06 
   50000     2.479531 0.0022129163    284904.75     57060.46 -7.310892e-05 0.00045679514 3.5078434e-05 
   51000    2.4865439 0.0022092399    284904.75    59009.204 -3.0018903e-05 0.0004312535 3.3740773e-05 
   52000    2.4776978 0.0022161549    284904.75    60996.265 -5.6883343e-05 0.00042030393 5.4161829e-05 
   53000    2.4801866 0.0022121583    284904.75    63011.342 3.7762745e-05 0.00045484617 -3.7316284e-05 
   54000    2.4778352 0.0022154657    284904.75     65060.81 6.938841e-05 0.00049236893 -7.2546973e-05 
   55000    2.4788433 0.0022141708    284904.75     67148.26 5.320519e-05 0.00049435497 2.0482859e-06 
   56000    2.4832686 0.0022159813    284904.75    69287.965 1.6304089e-05 0.0004808512 -2.871766e-05 
   57000    2.4798314 0.0022120183    284904.75    71470.217 -2.149439e-05 0.00056193086 4.5814777e-05 
   58000    2.4784921 0.0022144801    284904.75    73683.553 4.5578689e-05 0.00056841512 0.00012233014 
   59000    2.4777561 0.0022162832    284904.75    75934.975 5.1354348e-05 0.00058947577 0.00013105302 
   60000    2.4808111 0.0022149729    284904.75     78223.52 5.8404756e-05 0.00060209574 0.00013751941 
   61000     2.481254 0.0022179626    284904.75    80549.603 2.3965903e-05   0.00065268 0.00012298122 
   62000    2.4789853 0.0022140228    284904.75    82928.955 -3.5283236e-06 0.00067510267 0.00012723298 
   63000    2.4790691 0.0022130602    284904.75    85333.042 -5.9180753e-06 0.00063738289 5.1085635e-05 
   64000    2.4793426 0.0022138244    284904.75    87752.641 -1.4720072e-05 0.00065048836 4.1530079e-05 
   65000    2.4808411 0.0022140605    284904.75    90216.183 4.8033976e-07 0.00063904342 -1.7587571e-05 
   66000    2.4819299 0.0022146538    284904.75    92726.872 -3.672611e-05 0.00066977224 -8.3757135e-06 
   67000    2.4840216 0.0022086886    284904.75     95287.11 -3.3492283e-05 0.00066790895 -3.231819e-05 
   68000    2.4791605 0.0022146636    284904.75    97873.869 -0.00013838536 0.00063749542 1.1241328e-05 
   69000    2.4784524  0.002214853    284904.75    100463.59 -0.00012886587 0.0005822423 1.9691483e-05 
   70000    2.4805281 0.0022572412    284904.75    103097.02 -5.3348436e-05 0.0005721716 1.3151077e-05 
   71000    2.4811643 0.0022101756    284904.75    105780.67 -6.5360876e-05 0.00059171315 9.1123548e-05 
   72000    2.4787389 0.0022142139    284904.75     108505.1 -0.00018983761 0.00053684754 3.6908991e-05 
   73000    2.4780122 0.0022156733    284904.75    111240.79 -5.1112773e-05 0.00049745765 -3.3374282e-05 
   74000    2.4801772 0.0022143997    284904.75    113971.42 -4.3806317e-05 0.00044911579 -1.2811623e-05 
   75000    2.4798039 0.0022237788    284904.75    116719.72 -9.7528319e-05 0.00047155675 -7.2080512e-05 
   76000    2.4801747 0.0022129441    284904.75    119508.22 -0.00013518566 0.00048130557 -2.3050462e-05 
   77000    2.4790222 0.0022137679    284904.75    122316.55 -0.00017862465 0.00037198084 -2.2827206e-05 
   78000    2.4804672 0.0022142585    284904.75    125149.86 -0.00021931843 0.00033897326 -5.5900157e-05 
   79000    2.4832457 0.0022113995    284904.75    128025.74 -0.00022825898 0.00035922517 -9.0268128e-05 
   80000    2.4798709 0.0022317939    284904.75    130926.74 -0.00026818122 0.00045235837 -0.00012018939 
   81000    2.4830232 0.0022380085    284904.75    133862.13 -0.00027516084 0.00050061503 -0.00021486608 
   82000    2.4795842 0.0022138051    284904.75    136847.57 -0.00026199748 0.00044262444 -0.00012907323 
   83000    2.4840454 0.0022145715    284904.75    139845.71 -0.000210463 0.00035370048 -0.00014088111 
   84000    2.4804974  0.002216784    284904.75    142865.01 -0.00024973493 0.00033027944 -0.00028778005 
   85000    2.4791538 0.0022131787    284904.75    145892.56 -0.00021009813 0.00030393417 -0.00027692067 
   86000    2.4844035 0.0022148343    284904.75     148953.9 -0.00021996084 0.00025550468 -0.00028233343 
   87000    2.4779422 0.0022155161    284904.75    152052.39 -0.00023780054 0.00019448647 -0.00037450744 
   88000    2.4789096 0.0022138917    284904.75    155166.28 -0.00020591878 0.00021525313 -0.0003251786 
   89000    2.4795393 0.0022149398    284904.75    158239.38 -0.00013811326 0.00034848785 -0.0002486823 
   90000    2.4813493 0.0022139449    284904.75    161277.08 -0.0001193588 0.00035284661 -0.00026841098 
   91000     2.481466 0.0022142005    284904.75    164357.31 -0.00011847548 0.00036614134 -0.00029544117 
   92000    2.4775731 0.0022159099    284904.75    167488.06 -8.197512e-05 0.00026080842 -0.00036304427 
   93000    2.4841286 0.0022172481    284904.75     170644.9 -3.7854904e-05 0.00022347567 -0.00035942129 
   94000    2.4798895 0.0022375652    284904.75     173828.1 1.4574464e-05 2.0863395e-05 -0.00036669569 
   95000    2.4811253 0.0022130916    284904.75    176978.62 -5.8176535e-05 0.00012414176 -0.00030948061 
   96000    2.4777976 0.0022158767    284904.75    180177.01 -2.5689902e-05 0.00010077864 -0.00033387417 
   97000    2.4786477  0.002214477    284904.75    183434.26 -8.8140505e-06 0.0001071933 -0.00032751316 
   98000    2.4782441 0.0022152812    284904.75    186735.26 3.2234899e-05 0.00016501815 -0.00028991527 
   99000     2.478206 0.0022153165    284904.75    190083.35 3.0897762e-05 0.00018649407 -0.0002797557 
  100000    2.4843789 0.0022325571    284904.75    193468.95 0.00014153831 0.00021017331 -0.00032831868 
  101000    2.4790598 0.0022141034    284904.75    196836.86 2.1129962e-06  0.000212374 -0.00028121134 
  102000    2.4781008 0.0022152772    284904.75     200222.7 1.6374498e-05 0.00021833375 -0.00029131398 
  103000    2.4779821 0.0022156992    284904.75    203622.69 -7.1064459e-05 0.00030243813 -0.0003321627 
  104000    2.4802491 0.0022294971    284904.75    207013.45 -1.5783908e-05 0.00038695057 -0.00031987534 
  105000    2.4778784 0.0022157506    284904.75     210438.3 -3.2549194e-05 0.00037846356 -0.00032887863 
  106000    2.4799168 0.0022121181    284904.75    213909.64 -5.3387473e-05 0.00036937044 -0.00029806215 
  107000    2.4809378 0.0022121386    284904.75    217415.79 -8.0403505e-05 0.00033054138 -0.00030144585 
  108000    2.4832339 0.0022119725    284904.75    220924.55 -3.4424761e-05 0.00039154222 -0.00033975849 
  109000    2.4796143 0.0022128924    284904.75    224451.77 -2.0236221e-05 0.00042636781 -0.00032742498 
  110000    2.4798595 0.0022120043    284904.75    228017.16 -6.0893046e-05 0.00045947023 -0.00034169639 
  111000    2.4789838 0.0022136907    284904.75    231615.83 -8.2374171e-05 0.00040944501 -0.00030435655 
  112000      2.48142  0.002212422    284904.75    235243.56 -8.3569593e-05 0.00042606661 -0.00031824138 
  113000    2.4797927  0.002213225    284904.75    238903.26 -0.00017380085 0.00040800345 -0.00029752248 
  114000    2.4782831 0.0022149947    284904.75    242586.68 -0.00019973644 0.00046545884 -0.00030193964 
  115000    2.4795544 0.0022307402    284904.75    246303.62 -0.00022636678 0.0004816573 -0.00026585003 
  116000     2.471475 0.0022826428    284904.75    250058.63 -0.00020176486 0.00044765957 -0.00023016149 
  117000    2.4796262  0.002212997    284904.75    253811.49 -0.00020476031 0.00048832254 -0.00044765563 
  118000    2.4800002 0.0022120496    284904.75     257585.9 -0.0002037575 0.00048226965 -0.00046175713 
  119000    2.4827653 0.0022181028    284904.75    261391.16 -0.00018247194 0.00049852758 -0.00049321613 
  120000    2.4802725 0.0022157683    284904.75     265212.1 -0.00023421021 0.00046551128 -0.00054348721 
  121000    2.4789527 0.0022137799    284904.75     269058.2 -0.0001926669 0.00045332068 -0.00054727069 
  122000    2.4784927 0.0022148614    284904.75    272931.17 -0.00022503785 0.00045209512 -0.00052940492 
  123000     2.480748 0.0022282678    284904.75    276853.72 -0.00016992627 0.00050336864 -0.00053471194 
  124000    2.4820685 0.0022098152    284904.75    280793.03 -0.00022095254 0.00049133902 -0.00052733506 
  125000    2.4818647 0.0022094875    284904.75    284772.79 -0.00013866006 0.00051167165 -0.00053623987 
  126000    2.4798114 0.0022125392    284904.75    288745.76 -0.00012044293 0.00052818723 -0.00053542389 
  127000    2.4827859 0.0022165637    284904.75    292722.04 -7.85872e-05 0.00047107818 -0.00061249796 
  128000    2.4783862 0.0022144837    284904.75    296670.73 -0.00010602123 0.00047801358 -0.00062435143 
  129000     2.485467 0.0022163573    284904.75     300635.2 -0.0001767942 0.00046233109 -0.00061585859 
  130000     2.481076  0.002211431    284904.75    304615.17 -0.00018393063 0.00050580752 -0.00064441213 
  131000    2.4824228 0.0022139017    284904.75    308615.21 -0.00020273919 0.00047749364 -0.0006748648 
  132000    2.4777026 0.0022158186    284904.75    312660.65 -0.00014057181 0.00041962478 -0.000700077 
  133000    2.4784705 0.0022142105    284904.75    316723.86 -0.00015171244 0.00038183128 -0.00057881275 
  134000     2.482001 0.0022138422    284904.75     320801.9 -0.00011012907 0.00035324835 -0.00054744361 
  135000    2.4774171 0.0022166532    284904.75    324944.57 -0.00011809883 0.00038748619 -0.00051709145 
  136000     2.479708 0.0022350688    284904.75    329135.84 -0.00020151542 0.00042392975 -0.00045185948 
  137000    2.4806619 0.0022121515    284904.75    333362.09 -9.7200049e-05 0.00037846352 -0.00053306284 
  138000    2.4782132 0.0022148901    284904.75    337610.77 -0.00012649715 0.00038533925 -0.00053581617 
  139000    2.4797378 0.0022157035    284904.75    341921.61 -2.5344958e-05  0.000444759 -0.00048056794 
  140000    2.4857711 0.0022204552    284904.75    346282.68 -3.9031186e-05 0.00045756249 -0.00040103967 
  141000    2.4871864 0.0022250721    284904.75    350674.24 -0.00014277152 0.00052153505 -0.00045766516 
  142000    2.4786839 0.0022139724    284904.75    355127.98 -0.0001499302 0.00048486815 -0.00048345116 
  143000     2.480523  0.002215987    284904.75    359608.53 -0.00016577808 0.00050694624 -0.00052141083 
  144000    2.4790087 0.0022138309    284904.75    364129.54 -0.0001695584 0.00044016439 -0.00054252628 
  145000    2.4814943 0.0022111895    284904.75    368712.57 -0.00019479023 0.00043501361 -0.00053515058 
  146000    2.4849547 0.0022098619    284904.75    373319.36 -0.00015078423 0.00040163157 -0.00046192421 
  147000    2.4806678 0.0022117019    284904.75    377846.45 -0.00015173659 0.0003192931 -0.00038930607 
  148000    2.4784586 0.0022147961    284904.75    382325.92 -0.00015361173 0.00032940062 -0.000356391 
  149000    2.4776168 0.0022161874    284904.75     386831.7 -0.00013359324 0.00032290969 -0.00030301991 
  150000    2.4801368 0.0022161343    284904.75    391365.59 -0.00015751304 0.00036383993 -0.00031561392 
  151000    2.4818067 0.0022095479    284904.75    395862.56 -0.0002693655 0.00032422456 -0.00029243978 
  152000    2.4811603 0.0022350511    284904.75    400282.12 -0.0002184277 0.00020531366 -0.00032321174 
  153000    2.4780625 0.0022155801    284904.75    404742.41 -0.00027732414 0.0001831219 -0.00026171697 
  154000    2.4782256 0.0022146892    284904.75    409236.08 -0.00028471049 0.00017565533 -0.00023471689 
  155000    2.4815836 0.0022109519    284904.75    413758.89 -0.00025859183 0.00013751672 -0.00022200856 
  156000    2.4804505 0.0022118981    284904.75    418154.16 -0.00013663957 0.00028770961 -0.00013339009 
  157000    2.4823623 0.0022285847    284904.75    422478.56 -6.3394395e-05 0.0001629689 -0.00011374024 
  158000    2.4811521 0.0022100607    284904.75    426792.61 -0.00012658674 0.00021741935 -0.00015202063 
  159000    2.4854627 0.0022217885    284904.75    431130.07 -0.00017378002 0.00022953296 -0.00019508647 
  160000    2.4818045 0.0022398525    284904.75    435453.49 -0.00017749612 0.00020134428 -0.00022993359 
  161000    2.4797359 0.0022140385    284904.75    439806.11 -0.00024940326 0.00027791808 -0.00021464433 
  162000    2.4791102 0.0022465252    284904.75       444174 -0.00016947721 0.00032372309 -0.00025105492 
  163000    2.4775394 0.0022164477    284904.75    448492.52 -0.00021231981 0.00024319539 -0.00012738043 
  164000    2.4831015 0.0022083762    284904.75    452801.92 -0.00021342043 0.00026022014 -0.0001355488 
  165000    2.4791658 0.0022139264    284904.75    457124.18 -0.00025712178 0.00018508714 -9.9514868e-05 
  166000    2.4785794 0.0022145792    284904.75    461441.14 -0.00025770254 0.00018810958 -0.00012209177 
  167000    2.4840213 0.0022176909    284904.75     465745.6 -0.00023654905 0.00020658806 -9.1660851e-05 
  168000    2.4797317 0.0022127407    284904.75     470033.9 -0.00027211406 0.00038120712 -2.673129e-05 
  169000    2.4773941 0.0022169294    284904.75    474327.33 -0.00029405902 0.00035110286 -4.3010882e-05 
  170000    2.4787562 0.0022146399    284904.75    478696.14 -0.00028999853 0.00036686635 -2.8497187e-05 
  171000    2.4798304 0.0022136358    284904.75    483162.06 -0.00032990521 0.00041438048 -4.6647806e-05 
  172000    2.4796566 0.0022269267    284904.75    487670.57 -0.00032985721 0.00039296879 -5.3778837e-05 
  173000    2.4785694 0.0022144426    284904.75    492196.11 -0.00022204889 0.0003214846 -2.1903659e-05 
  174000    2.4804043 0.0022348912    284904.75    496740.87 -0.00027602909 0.00026574308 -0.00010343152 
  175000    2.4827646 0.0022082523    284904.75    501258.26 -0.00022378803 0.00022531848 -6.7058751e-05 
  176000    2.4827285 0.0022167891    284904.75    505836.57 -0.00021107315 0.00024437112 -8.865461e-05 
  177000    2.4823015 0.0022230479    284904.75    510397.54 -0.00015183823 0.00027263989 -0.00025017758 
  178000    2.4784661 0.0022148065    284904.75    514916.63 -0.0002292632 0.00019565292 -0.00027763988 
  179000    2.4806234 0.0022132303    284904.75    519436.69 -0.00018940413 0.00014139242 -0.00029983048 
  180000    2.4795055 0.0022128922    284904.75    524006.35 -0.00024172927 0.00017635807 -0.0003303859 
  181000    2.4804793 0.0022121476    284904.75    528627.13 -0.00014532997 0.00020287402 -0.00036743601 
  182000    2.4868647 0.0022055084    284904.75    533252.16 -0.00024405388 0.00017913082 -0.000300958 
  183000    2.4803063 0.0022129184    284904.75    537785.31 -0.00015933139 0.00035545197 -0.00032124237 
  184000    2.4795666 0.0022132633    284904.75    542283.76 -0.00020534168 0.0003143743 -0.00030918209 
  185000    2.4838772  0.002209799    284904.75    546784.21 -0.00018727412 0.00031355722 -0.00024261477 
  186000    2.4810571 0.0022305979    284904.75     551288.5 -0.00018374287 0.00030039016 -0.00031966112 
  187000    2.4889697 0.0022375438    284904.75    555827.31 -0.00017292415 0.00028675156 -0.00030006104 
  188000     2.478737 0.0022442954    284904.75    560369.23 -0.00021084451 0.00010028208 -0.00027788215 
  189000    2.4804657 0.0022127342    284904.75    564839.55 -0.00022447929 0.00022918681 -0.00038017356 
  190000    2.4832051 0.0022155586    284904.75    569356.37 -0.00019161145 0.00023273414 -0.00033394763 
  191000    2.4793692 0.0022134941    284904.75    573879.54 -0.00019364533 0.00020047558 -0.00035544641 
  192000    2.4827198 0.0022087614    284904.75    578415.83 -0.00019025495 0.00016077746 -0.00043287881 
  193000    2.4816229 0.0022119953    284904.75    582857.01 -0.0002261739 0.00014006935 -0.00043005471 
  194000    2.4791533 0.0022346482    284904.75    587188.63 -8.7428974e-05 0.00013324497 -0.00042884029 
  195000    2.4825307 0.0022346857    284904.75    591562.85 -6.2999958e-05 4.7305307e-05 -0.00038562307 
  196000    2.4684088 0.0023107359    284904.75       595951 -3.711894e-05 0.00015998494 -0.00049417263 
  197000    2.4815564 0.0022105564    284904.75    600242.61 -0.00016030743 0.00014690844 -0.00041305528 
  198000    2.4804047 0.0022114961    284904.75    604457.18 -0.00028013065  0.000158755 -0.00046959675 
  199000    2.4811209 0.0022123359    284904.75    608632.71 -0.00032872733 0.00033618752 -0.00045402296 
  200000    2.4795598  0.002213767    284904.75    612718.89 -0.00046188522 0.00036072455 -0.00045586214 
  201000    2.4836308  0.002213401    284904.75    616783.79 -0.00043727329 0.00038956956 -0.00041424443 
  202000    2.4808986 0.0022257462    284904.75    620901.28 -0.00033488599 0.00045988143 -0.00035970449 
  203000    2.4746973 0.0022813901    284904.75     625054.2 -0.00050716564 0.0006402967 -0.00032073883 
  204000    2.4800444 0.0022121269    284904.75    629210.63 -0.00035158759 0.00044440923 -0.00038590347 
  205000      2.48842  0.002215032    284904.75    633411.23 -0.00029699027 0.00043833636 -0.00032519738 
  206000    2.4794479 0.0022133866    284904.75    637697.57 -0.0003094077 0.00044367925 -0.00030072013 
  207000    2.4820617  0.002210583    284904.75    642043.57 -0.00033972938 0.00044565812 -0.00031224802 
  208000    2.4797579 0.0022155452    284904.75    646425.15 -0.00032574538 0.00041569187 -0.00029113629 
  209000    2.4848186 0.0022355945    284904.75    650857.05 -0.00032931727 0.00048427805 -0.00024459905 
  210000    2.4814945 0.0022123638    284904.75    655308.65 -0.00035950997 0.00041933377 -0.00022205001 
  211000    2.4796098 0.0022131041    284904.75    659765.25 -0.00042590396 0.00043665027 -0.00010722246 
  212000    2.4773714 0.0022167286    284904.75    664204.66 -0.00039545541 0.00048043057 -6.5157424e-05 
  213000    2.4792536 0.0022142032    284904.75    668685.56 -0.00040064981 0.00044784447 -6.819558e-05 
  214000    2.4803041 0.0022118213    284904.75    673231.21 -0.00042458877 0.00045215587 -8.0781413e-05 
  215000    2.4807199 0.0022185549    284904.75    677846.56 -0.00036440532  0.000314014 -8.4250729e-05 
  216000    2.4736624 0.0022700851    284904.75    682460.69 -0.00040618753 0.00050130176 -0.00022288752 
  217000    2.4804508 0.0022112837    284904.75    687079.54 -0.00035451905 0.00034776125 -5.0970062e-05 
  218000    2.4785402 0.0022145013    284904.75    691442.74 -0.00030340324 0.00030696964 8.569194e-06 
  219000    2.4626186 0.0023458119    284904.75    695719.12 -0.00040217018 0.00035824837 7.6236392e-05 
  220000    2.4825219 0.0022235223    284904.75    699867.06 -0.00040539477 0.00042549731 5.7017559e-05 
  221000    2.4809177 0.0022183599    284904.75    704047.41 -0.00046163746 0.00042567929 6.2639405e-05 
  222000    2.4799443 0.0022125861    284904.75    708253.56 -0.00046246397 0.0004095996  5.84483e-05 
  223000    2.4776924 0.0022160585    284904.75    712505.74 -0.0004876959 0.00036586951 9.500584e-05 
  224000    2.4823795 0.0022106044    284904.75    716749.67 -0.00052696161 0.00038956533  7.22265e-05 
  225000    2.4842046 0.0022157978    284904.75    721016.74 -0.00056564498 0.00039348775 0.00010909011 
  226000     2.479265 0.0022135172    284904.75    725338.28 -0.00054679217 0.00036777805 0.00016769708 
  227000    2.4795814  0.002212823    284904.75    729657.47 -0.00051490704 0.0003105464 7.368081e-05 
  228000    2.4781628 0.0022155833    284904.75    733998.34 -0.0005031166 0.0002691066 7.7691631e-05 
  229000    2.4786338 0.0022142847    284904.75    738397.96 -0.00049828024 0.00029530004 7.1295042e-05 
  230000    2.4777582 0.0022161854    284904.75    742801.87 -0.00052962136 0.00033659508 8.1341989e-05 
  231000    2.4836832  0.002214185    284904.75     747211.3 -0.00065338991 0.00028733614 0.00018454537 
  232000    2.4821684  0.002210137    284904.75    751499.96 -0.00066809682 0.00027117022 0.0002004566 
  233000    2.4803743 0.0022168213    284904.75    755680.17 -0.00065705958 0.00025590132 0.00030440136 
  234000    2.4796011 0.0022132698    284904.75    759841.83 -0.00060770451 0.00016382264 0.0003492296 
  235000    2.4901626 0.0022081062    284904.75     764000.8 -0.00057857534 0.00014616361 0.00041436722 
  236000    2.4748175 0.0022617095    284904.75    768034.13 -0.00055727242 5.0392853e-05 0.00036187891 
  237000    2.4834583 0.0022211445    284904.75    772038.52 -0.00064991846 0.00024815024 0.0003694844 
  238000    2.4796684 0.0022132268    284904.75    776006.99 -0.00059105863 0.00021735442 0.00038324141 
  239000    2.4778324 0.0022159431    284904.75    779853.22 -0.00058703826 7.0395472e-06 0.00056937299 
  240000    2.4788247 0.0022144091    284904.75    783678.73 -0.00051242961 0.00013248982 0.00063042858 
  241000    2.4707726 0.0023212278    284904.75    787557.76 -0.00034107782 0.00052125061 0.0013695368 
  242000    2.4809979 0.0022202812    284904.75    791582.64 -0.00048110242 -4.5288953e-05 0.00086315413 
  243000    2.4815585 0.0022110438    284904.75    795585.71 -0.0004510438 -7.2214282e-05 0.00083732083 
  244000    2.4790726 0.0022136755    284904.75    799570.18 -0.0005048887 -5.6737091e-05 0.00084510724 
  245000    2.4779025 0.0022155898    284904.75    803436.59 -0.0005022868 -4.4959904e-05 0.00089898701 
  246000    2.4803089 0.0022127611    284904.75    807295.92 -0.00054332874 -0.00017185016 0.00092583285 
  247000    2.4781194 0.0022153487    284904.75    810933.68 -0.00057214276 -0.00015765152 0.00088312078 
  248000    2.4786931  0.002214468    284904.75    814571.04 -0.00061604901 -0.00030447826 0.00086630647 
  249000    2.4787734 0.0022139843    284904.75    818247.69 -0.00060378996 -0.00027758683 0.00086927046 
  250000     2.479067 0.0022143302    284904.75    821883.95 -0.00058521291 -0.00025643364 0.00098963571 
  251000    2.4780307 0.0022156338    284904.75    825502.51 -0.00058524977 -0.00023875023 0.00098250661 
  252000    2.4779393  0.002215508    284904.75    829149.49 -0.00060125411 -0.00023225758 0.00096928471 
  253000    2.4821076 0.0022346994    284904.75    832743.33 -0.00052834797 -0.00021060602 0.00094619169 
  254000    2.4787493 0.0022147324    284904.75    836347.96 -0.00053776864 -0.00023433924 0.00096368139 
  255000    2.4814341 0.0022105191    284904.75    839924.89 -0.00052457096 -0.00017553186 0.00096937515 
  256000    2.4835709 0.0022106143    284904.75    843501.52 -0.00054063993 -0.00021394911 0.00090063285 
  257000     2.480721 0.0022184622    284904.75    847049.59 -0.00054820079 -0.00023838887 0.00091590402 
  258000    2.4783207 0.0022151518    284904.75    850618.77 -0.00059801993 -0.00017311923 0.0008645516 
  259000    2.4790911 0.0022146515    284904.75    854191.22 -0.00054511618 -0.00023514918 0.0010019955 
  260000    2.4786175 0.0022142869    284904.75    857811.88 -0.00058807912 -0.00024902746 0.00099378239 
  261000    2.4818744 0.0022139306    284904.75     861503.4 -0.00045112917 -0.00015874306 0.0010962199 
  262000      2.48106 0.0022212236    284904.75    865228.18 -0.00046861936 -0.00020547591 0.0011100358 
  263000     2.484289 0.0022320403    284904.75    868866.73 -0.00034673132 -0.00031329866 0.0010401895 
  264000    2.4799258 0.0022133142    284904.75    872462.35 -0.00035770252 -0.00027865575  0.001118744 
  265000     2.477846 0.0022155429    284904.75    876076.05 -0.0003850609 -0.00028393835 0.0010866407 
  266000    2.4803806 0.0022102158    284904.75    879767.45 -0.0003816674 -0.00012010764 0.0011379068 
  267000    2.4807768 0.0022208429    284904.75     883585.5 -0.00038779093 -0.00015270005 0.0010849409 
  268000    2.4871622 0.0022247193    284904.75    887256.67 -0.0003503359 -0.00017526233 0.00094531813 
  269000    2.4794245 0.0022154452    284904.75    890875.98 -0.00044584301 -0.00013873111 0.00085757033 
  270000    2.4780473 0.0022154889    284904.75    894539.65 -0.00043071562 -0.00011477092 0.00087227411 
  271000    2.4792709 0.0022133714    284904.75    898246.62 -0.000433081 -9.405469e-05 0.0008469255 
  272000    2.4810103 0.0022116684    284904.75    901984.89 -0.00030895985 -0.0001609031 0.00091893265 
  273000    2.4808588 0.0022178376    284904.75    905694.98 -0.00036055115 -0.00020027456 0.0008189914 
  274000    2.4850546 0.0022087186    284904.75    909434.36 -0.00036183313 -0.00021874394 0.00076285415 
  275000    2.4818353 0.0022252191    284904.75    913178.25 -0.00034558143 -0.00028738579 0.00074802523 
  276000    2.4807206 0.0022117995    284904.75    916833.96 -0.00035650858 -0.00024656943 0.00076727372 
  277000    2.4836507 0.0022192637    284904.75    920478.77 -0.00030711059 -0.00022128047 0.00079475036 
  278000    2.4825299 0.0022640711    284904.75    924000.68 -0.0003661409 -0.00020869182 0.00083183806 
  279000    2.4829797 0.0022348305    284904.75    927591.09 -0.00038999904 -0.00016328646 0.00091132888 
  280000    2.4836544 0.0022082525    284904.75     931195.2 -0.00045951479 -0.00014167297 0.00091685942 
  281000    2.4799097 0.0022133867    284904.75    934827.17 -0.00040195464 -7.747077e-05 0.00083479874 
  282000    2.4792308 0.0022138643    284904.75    938481.42 -0.00047592121 -0.00013549839 0.00089694413 
  283000     2.480212 0.0022198891    284904.75    942129.94 -0.00046231886 -7.5817726e-05 0.0010005228 
  284000    2.4786939 0.0022144836    284904.75    945712.27 -0.00040839465 1.2726246e-05 0.00085885269 
  285000    2.4834546 0.0022077431    284904.75    949327.71 -0.00039049035 -2.1923056e-05 0.0008312545 
  286000    2.4811265 0.0022131626    284904.75    952915.75 -0.00029407315  2.05635e-05 0.00080263283 
  287000    2.4796881 0.0022603318    284904.75    956471.99 -0.00042825674 -3.1942054e-05 0.00084450074 
  288000    2.4795212 0.0022130302    284904.75    960118.69 -0.00019091685 -4.704739e-05 0.0006901468 
  289000    2.4780247 0.0022152382    284904.75     963804.2 -0.00021208257 -1.3439549e-05 0.00064933625 
  290000    2.4797139 0.0022122972    284904.75    967532.28 -0.00024762285 -3.8285214e-06 0.0006361893 
  291000    2.4796588 0.0022124264    284904.75    971236.84 -0.00025014842 -1.6393492e-05 0.00066181903 
  292000    2.4815387  0.002213214    284904.75    974978.94 -0.0002153661 -7.5489253e-05 0.00059066665 
  293000    2.4724508 0.0023182349    284904.75     978772.6 -0.00046238323 -1.5897174e-05 0.00059120361 
  294000    2.4793262 0.0022133166    284904.75    982599.45 -0.00024885835 -5.0569831e-05 0.00062285301 
  295000    2.4780644 0.0022151683    284904.75    986424.35 -0.00015484272 -4.2558292e-05 0.00058849583 
  296000    2.4785834 0.0022147034    284904.75     990203.6 -0.00019354089 1.3933162e-05 0.00051792094 
  297000    2.4803681 0.0022130794    284904.75    993988.78 -0.00022299513 2.3841269e-05 0.00051499636 
  298000    2.4804638 0.0022290583    284904.75    997806.89 -0.00022398909 1.5266206e-05 0.00052216078 
  299000    2.4685797 0.0023058466    284904.75    1001571.5 -0.0003640533 0.00026980495 7.6751751e-05 
  300000    2.4802613 0.0022526184    284904.75    1005256.5 -0.00015339162 0.00014813299 0.00055121475 
  301000     2.477237  0.002273614    284904.75    1008847.3 -0.00021774753 0.00015901944 0.00031589083 
  302000    2.4796728 0.0022126715    284904.75    1012488.5 -0.00025828059 0.00022643796 0.00036345679 
  303000    2.4779592 0.0022154567    284904.75    1016148.1 -0.00018361116 0.00020114757 0.00030424576 
  304000    2.4822084 0.0022210293    284904.75      1019767 -0.00022764131 0.00018305207 0.00029378991 
  305000    2.4773083 0.0022171524    284904.75    1023391.2 -0.00013759212 0.00024281233 0.00026187757 
  306000    2.4827612 0.0022208611    284904.75    1027077.9 -0.00014430579 0.00024509217 0.00028856055 
  307000    2.4817202  0.002227872    284904.75    1030783.8 -7.7985016e-05 0.00019220646 0.00033149059 
  308000    2.4795461 0.0022131384    284904.75    1034516.7 -0.00013137924 0.00013973487 0.00040017632 
  309000     2.481312 0.0022233287    284904.75    1038182.6 -9.2990226e-05 0.00029238472 0.00039639872 
  310000    2.4790537 0.0022134995    284904.75    1041897.6 -9.7849501e-05 0.00029485012 0.00040740411 
  311000    2.4776485 0.0022158748    284904.75    1045693.7 -7.4373314e-05 0.0002802916 0.00035656598 
  312000    2.4802724 0.0022175936    284904.75    1049567.9 -5.4150662e-05 0.00039209842 0.00029060365 
  313000    2.4796636 0.0022123243    284904.75    1053470.3 -5.1856472e-05 0.00036069267 0.00024901487 
  314000    2.4808684 0.0022252152    284904.75    1057306.3 -5.2724214e-06 0.00040249168 0.00024124722 
  315000    2.4782242 0.0022146737    284904.75    1061151.8 -3.8138095e-05 0.00036120455 0.00026864909 
  316000    2.4778345 0.0022158072    284904.75    1064996.7 -5.5862704e-05 0.00033019108 0.00035226491 
  317000    2.4825119 0.0022177381    284904.75    1068843.2 -9.3282613e-05 0.00028758078 0.00036558008 
  318000    2.4785337 0.0022155276    284904.75    1072786.2 -0.00013165062 0.00026026398 0.00035227457 
  319000    2.4789618 0.0022140176    284904.75      1076797 -0.00010710703 0.0002599445 0.00038002873 
  320000    2.4759566 0.0022563327    284904.75    1080845.1 -6.0678884e-06 0.00030090881 0.00031141325 
  321000    2.4797474 0.0022120986    284904.75    1084870.8 -9.4684412e-05 0.00027843097 0.00035789707 
  322000    2.4841299 0.0022239452    284904.75    1089031.9 -0.00012062718 0.00036470955 0.00029313806 
  323000    2.4798495  0.002213433    284904.75    1093227.5 -0.00014024192 0.0002883326 0.00027960218 
  324000    2.4789227 0.0022136567    284904.75    1097352.2 -7.6772868e-05 0.00032542597 0.00010611257 
  325000    2.4803745 0.0022190149    284904.75    1101449.6 -5.9505196e-05 0.00031836421 0.00010444779 
  326000    2.4800583 0.0022145095    284904.75    1105609.2 -7.248888e-05 0.00029761641 4.0678725e-05 
  327000    2.4785785 0.0022147489    284904.75      1109778 -9.6019354e-05 0.0002799151 7.314317e-05 
  328000    2.4833902 0.0022168155    284904.75    1114007.2 -9.5326284e-05 0.00025195023 9.4743229e-05 
  329000    2.4770814 0.0022478888    284904.75    1118367.3 -0.00022358529 0.0002408685 0.00010116438 
  330000    2.4813865 0.0022105023    284904.75    1122748.1 -0.00027366606 0.00014815258 0.00020629389 
  331000    2.4830115 0.0022401022    284904.75    1127175.8 -0.00043362738 -1.5455068e-05 0.00016485995 
  332000    2.4817955 0.0022201348    284904.75      1131580 -0.00045379219 0.00013887037 0.00017951002 
  333000    2.4811572 0.0022302792    284904.75    1136006.8 -0.00044697749 0.00014835855 0.00021489933 
  334000    2.4818503 0.0022138042    284904.75    1140256.8 -0.00044217855 0.00023852477 0.00028639208 
  335000    2.4788801 0.0022140575    284904.75    1144478.9 -0.00041122211 0.00023015649 0.00029562341 
  336000    2.4802452 0.0022119267    284904.75    1148662.9 -0.00056139944 0.00028868213 0.00035907488 
  337000    2.4790958 0.0022572421    284904.75    1152818.7 -0.00054208669 0.00028220938 0.00037060402 
  338000    2.4780366 0.0022149769    284904.75    1156994.1 -0.00055551365 0.00028466303 0.00029964996 
  339000    2.4801512 0.0022164066    284904.75    1161213.6 -0.00056965397 0.00028566565 0.00029973944 
  340000    2.4793628 0.0022128947    284904.75      1165419 -0.00052904872 0.00028426181 0.00025055153 
  341000    2.4778333 0.0022156717    284904.75    1169663.9 -0.00053505756 0.00023950806 0.00023074924 
  342000    2.4766505 0.0022530506    284904.75    1173946.9 -0.00053613956 0.00023572886 0.00027980165 
  343000    2.4799666 0.0022254037    284904.75    1178256.2 -0.00043869408 0.00015700944 0.00029305031 
  344000    2.4778687 0.0022156118    284904.75    1182467.6 -0.00041393532 0.00010268372 0.00027953773 
  345000    2.4815734 0.0022203465    284904.75    1186657.4 -0.00041393989 0.00016056914 0.00031353498 
  346000    2.4788044 0.0022142246    284904.75    1190844.3 -0.00046444867 0.00019845532 0.00031440175 
  347000    2.4824072 0.0022145599    284904.75    1194990.3 -0.00041825318 0.00022404186 0.00032301541 
  348000    2.4791698 0.0022149954    284904.75      1199178 -0.00039372022 0.00021387745 0.00025348215 
  349000    2.4786459 0.0022145025    284904.75    1203414.7 -0.00037697734 0.00017698012 0.00021768153 
  350000    2.4813268 0.0022166492    284904.75    1207695.9 -0.00042738056 0.0001262298 0.00027355827 
  351000    2.4782057 0.0022150254    284904.75    1211915.5 -0.00040046269 8.3029679e-05 0.00018794001 
  352000    2.4804865 0.0022128836    284904.75    1216038.9 -0.00036064289 9.4828969e-05 0.00012929461 
  353000    2.4804359 0.0022144379    284904.75    1220222.3 -0.00036765767 0.00010533468 0.00014481683 
  354000    2.4784247 0.0022148963    284904.75    1224434.9 -0.00035846136 0.00015273337 0.00017018511 
  355000    2.4789884 0.0022383243    284904.75    1228682.3 -0.00036261103 9.6970441e-05 0.00015825443 
  356000      2.47829 0.0022152386    284904.75    1232920.3 -0.00035852343 7.7303883e-05 0.00018007604 
  357000    2.4791703 0.0022136683    284904.75    1237163.1 -0.0003953617   7.6331e-05 0.00018228572 
  358000    2.4804683 0.0022423513    284904.75    1241452.4 -0.00044135634 8.1055966e-05 0.00020849178 
  359000    2.4832917 0.0022208729    284904.75    1245816.4 -0.00042100868 5.6716949e-05 0.00020787804 
  360000    2.4846987 0.0022115964    284904.75      1250201 -0.00044929721 0.00010637079 0.00040743138 
  361000    2.4821025 0.0022121852    284904.75    1254638.9 -0.00045571233 0.00012216863 0.00038649003 
  362000    2.4810375 0.0022146769    284904.75    1259115.7 -0.00041309852 0.00010286317 0.00037668565 
  363000    2.4814781  0.002211569    284904.75    1263637.8 -0.00042831949 5.0831036e-05 0.00041311352 
  364000    2.4847224 0.0022114037    284904.75    1268164.4 -0.00050417847 -2.4934484e-05 0.00036586764 
  365000    2.4811531 0.0022111553    284904.75    1272647.1 -0.00045677935 -2.9588706e-05 0.00038764661 
  366000    2.4800596   0.00221767    284904.75    1277046.8 -0.0004346157 -4.6837572e-05 0.00042182535 
  367000    2.4796882 0.0022128432    284904.75    1281303.2 -0.00036358268 -3.0169312e-05 0.00049851433 
  368000    2.4797535 0.0022117872    284904.75    1285424.2 -0.00042307992 -2.9624919e-08 0.00049455322 
  369000    2.4771592 0.0022463909    284904.75      1289430 -0.0001103998 0.00014047456 0.00026522815 
  370000    2.4846293 0.0022112779    284904.75    1293426.1 -0.00023392165 0.00012129023 0.00034742701 
  371000    2.4851667 0.0022152147    284904.75    1297393.6 -0.0002495384 0.00015713872 0.00033961274 
  372000    2.4823521 0.0022099219    284904.75    1301383.2 -0.00020930818 6.1967907e-05 0.00033492437 
  373000    2.4837018 0.0022139298    284904.75    1305418.2 -0.00032386919 9.5141667e-05 0.00028500642 
  374000     2.484448 0.0022126572    284904.75      1309445 -0.00035286908 0.00014421158 0.00031247639 
  375000    2.4803766 0.0022149021    284904.75    1313447.2 -0.00026547952 4.4414414e-05 0.00027458747 
  376000     2.482988  0.002210168    284904.75    1317429.8 -0.00027980364 6.1433099e-05 0.00028455463 
  377000    2.4852348 0.0022110892    284904.75    1321481.6 -0.00029100016 1.7711593e-05 0.00033556129 
  378000    2.4822712 0.0022155768    284904.75    1325533.3 -0.00032783973 0.0001038488 0.00037956429 
  379000     2.480375 0.0022120954    284904.75      1329593 -0.00029934944 0.00021231997 0.0002691644 
  380000    2.4839867 0.0022302999    284904.75    1333650.8 -0.00027872683 0.00018339317 0.00021553749 
  381000    2.4803445 0.0022114638    284904.75    1337697.5 -0.00032524088 0.00021435313 0.00022851821 
  382000    2.4848091 0.0022124574    284904.75    1341750.7 -0.00030886358 0.00026104852 0.00023074466 
  383000    2.4793371 0.0022296237    284904.75      1345863 -0.00026629486 0.00024461054 0.00022531695 
  384000     2.478744 0.0022134717    284904.75    1350041.4 -0.00025189686 0.00026299696 0.00021550928 
  385000     2.479058 0.0022135187    284904.75    1354251.2 -0.00019466489 0.00027724895 0.00023862908 
  386000    2.4782253 0.0022150803    284904.75    1358406.6 -0.00015852369 0.00027614936 0.00018711282 
  387000    2.4779588  0.002215733    284904.75    1362556.9 -0.00015004448 0.00029367483 0.00019929757 
  388000    2.4826972 0.0022132798    284904.75    1366759.2 -0.00013672751 0.00028303295 0.00020655875 
  389000    2.4834389 0.0022109716    284904.75    1371025.5 -0.00019413326 0.0003030307  0.000102529 
  390000    2.4778101 0.0022154874    284904.75    1375323.2 -0.00019395256 0.00030342362 0.00010406964 
  391000    2.4789732  0.002213532    284904.75    1379652.8 -0.00017062192 0.00029042947 7.9371174e-05 
  392000    2.4818401 0.0022281151    284904.75    1384041.7 -0.00016956131 0.00025847093 -1.0921285e-05 
  393000      2.47755 0.0022163699    284904.75    1388469.5 -0.00021138823 0.00029665142 -7.4151114e-06 
  394000    2.4820674 0.0022122805    284904.75    1392795.1 -0.00016155575 0.00033604813 6.7821996e-05 
  395000    2.4775703 0.0022161102    284904.75    1397095.5 -0.00011797553 0.00032797876 4.4881505e-05 
  396000     2.477581 0.0022159799    284904.75    1401423.8 -0.00010057704 0.00032511118 2.0103523e-05 
  397000    2.4780954 0.0022414232    284904.75    1405795.8 -0.0001571601  0.000391674 -3.6295557e-05 
  398000    2.4836698 0.0022233854    284904.75    1410159.6 -0.00023661627 0.00037438119 -2.0428139e-05 
  399000    2.4802914 0.0022362148    284904.75    1414594.4 -0.00023642724 0.00036778051 -4.8099059e-05 
  400000    2.4855983 0.0022097337    284904.75    1419072.5 -0.00027200305 0.00034644008 5.7971897e-06 
  401000    2.4778783 0.0022158387    284904.75      1423546 -0.0002224841 0.00031632798 3.3073604e-05 
  402000    2.4804881 0.0022126419    284904.75      1427868 -0.00030375033 0.00036889635 -3.0752554e-06 
  403000    2.4838459 0.0022183636    284904.75    1432155.7 -0.00025914385 0.00034442323 -6.0159415e-05 
  404000    2.4807073 0.0022118236    284904.75    1436368.8 -0.00034024116 0.00032738645 -5.5897118e-05 
  405000    2.4809648 0.0022105269    284904.75    1440539.4 -0.00037988135 0.00035357498 -3.7801684e-05 
  406000      2.47964 0.0022157196    284904.75    1444609.1 -0.00040181687 0.00033677573 -6.499879e-05 
  407000    2.4787051 0.0022358796    284904.75    1448687.5 -0.00043774608 0.00025035326 -6.0015459e-06 
  408000    2.4809144 0.0022125212    284904.75      1452733 -0.00044935229 0.0001777322 8.0738227e-05 
  409000    2.4847082 0.0022060436    284904.75    1456707.1 -0.00052688314 0.00019417804 0.0002704622 
  410000     2.479074 0.0022141487    284904.75    1460711.2 -0.00051833494 0.00017285983 0.0002239249 
  411000    2.4806652 0.0022130021    284904.75    1464742.3 -0.00053475826 0.00014114431 0.00023293123 
  412000    2.4786703 0.0022138045    284904.75    1468795.4 -0.00050978332 0.00013841687 0.00023632731 
  413000     2.482683 0.0022207744    284904.75    1472863.4 -0.00055171208 0.00012702236 0.00016995394 
  414000    2.4797151 0.0022130054    284904.75    1476875.1 -0.00051926945 0.00015219079 0.00011872964 
  415000    2.4805834 0.0022111925    284904.75    1480913.9 -0.00058426083 0.00015792543 0.00012487001 
  416000    2.4812016 0.0022110476    284904.75    1484952.6 -0.00066749842 0.00015155428 0.0001376957 
  417000    2.4800555  0.002214049    284904.75      1488974 -0.0006482255 0.00015843507 0.00011005686 
  418000    2.4793669 0.0022129668    284904.75      1493025 -0.0006898567 0.00012067621 9.7908637e-05 
  419000    2.4819503  0.002215064    284904.75    1497159.4 -0.00066108271 0.0001294731 0.00015410235 
  420000    2.4781669 0.0022154291    284904.75    1501187.1 -0.00068557617 0.00016758585 0.00017664376 
  421000     2.479321 0.0022139747    284904.75    1505298.5 -0.00069102229 0.00015771439 0.00021285834 
  422000    2.4842485 0.0022536993    284904.75    1509497.4 -0.00072398387 0.00018896789 0.00014975765 
  423000    2.4805108 0.0022174321    284904.75    1513661.5 -0.00072691885 0.00025279955 0.00019442469 
  424000    2.4787287 0.0022134951    284904.75    1517885.8 -0.00071638025 0.00025203473 0.00021676094 
  425000     2.482452 0.0022129605    284904.75    1522160.2 -0.00076903975 0.00037265821 0.00020819209 
  426000    2.4807289 0.0022136661    284904.75    1526431.5 -0.00077278839 0.00037026531 0.00017627739 
  427000    2.4795778 0.0022140638    284904.75    1530805.8 -0.00073161069 0.00035794704 0.00016993162 
  428000    2.4805191 0.0022258088    284904.75    1535064.4 -0.00077874714 0.0003916839 0.00011489038 
  429000    2.4828385 0.0022499831    284904.75    1539253.8 -0.00078729155 0.00037276037 0.00013145563 
  430000    2.4786153 0.0022152014    284904.75    1543478.1 -0.00077948488 0.00039294057 3.7854254e-05 
  431000    2.4803653  0.002223283    284904.75    1547780.2 -0.00079050526 0.00037254485 -1.1320177e-06 
  432000    2.4795789 0.0022132164    284904.75    1552063.8 -0.00068461749 0.00035407142 4.3398013e-05 
  433000    2.4793708  0.002214643    284904.75    1556291.2 -0.00067289714 0.00038493526 6.0635963e-05 
  434000    2.4811007 0.0022103826    284904.75      1560529 -0.00064919912 0.00042576081 5.2206093e-05 
  435000     2.480565 0.0022113576    284904.75    1564785.8 -0.00065486123 0.00043555341 6.6636007e-05 
  436000    2.4802159 0.0022200391    284904.75    1568858.8 -0.00070135964 0.00042999905 7.0256399e-05 
  437000    2.4773923 0.0022167606    284904.75    1572941.1 -0.00070732203 0.00048171228 0.00016173911 
  438000    2.4846556 0.0022137105    284904.75    1576973.4 -0.00070330743 0.00051361078 0.00020619502 
  439000    2.4798114 0.0022159065    284904.75    1580957.5 -0.00077913299 0.00058088303 0.00011652833 
  440000    2.4795315 0.0022337984    284904.75    1585004.5 -0.00070064799 0.0005480137 0.00011042491 
  441000    2.4807386 0.0022379241    284904.75    1589076.7 -0.00075067789 0.00059278594 9.0950502e-05 
  442000    2.4823086 0.0022117672    284904.75    1593222.4 -0.00079863268 0.00062204945 0.00015144583 
  443000     2.481171 0.0022195076    284904.75    1597402.4 -0.00079936458 0.00066232476 0.00017011528 
  444000    2.4787856 0.0022145368    284904.75    1601496.3 -0.00077694873 0.00058425083 0.00019827393 
  445000    2.4818853 0.0022101985    284904.75    1605640.6 -0.00076801249 0.00058174628 0.0001877949 
  446000    2.4781401 0.0022153955    284904.75    1609830.7 -0.00071776203 0.00045481718 0.00044031177 
  447000    2.4801667 0.0022116697    284904.75    1613798.2 -0.00072065398 0.00043034446 0.00044914871 
  448000    2.4780389 0.0022155922    284904.75    1617789.7 -0.00059764093 0.0004587551 0.00047960148 
  449000    2.4839846 0.0022069233    284904.75    1621919.4 -0.00060479516 0.00047645189 0.00047903596 
  450000    2.4790345 0.0022132894    284904.75    1626002.6 -0.0006312033 0.00045401939 0.00050497151 
  451000    2.4794716 0.0022138337    284904.75    1630131.4 -0.00062308376 0.00044745214 0.00046436016 
  452000    2.4802394 0.0022147088    284904.75    1634192.2 -0.00069191094 0.00043879211 0.00043850505 
  453000    2.4783838 0.0022151072    284904.75    1638223.9 -0.00062421872 0.00024175641 0.00039580888 
  454000    2.4798061 0.0022129126    284904.75    1642252.4 -0.00060300346 0.0002922232 0.00040997505 
  455000    2.4785717 0.0022147097    284904.75    1646183.8 -0.00056088013 0.00025146248 0.00040486949 
  456000    2.4770762 0.0022795582    284904.75    1650028.2 -0.00042610604 0.00037947509 0.00028335533 
  457000    2.4816202 0.0022121609    284904.75    1653946.7 -0.00053895719 0.00020960346 0.00045096865 
  458000    2.4799105 0.0022123279    284904.75    1657952.9 -0.00060062762 0.00024121711 0.00046757311 
  459000    2.4794298 0.0022132402    284904.75    1662010.6 -0.00060643345 0.00020320786 0.00047195549 
  460000    2.4789778 0.0022142929    284904.75    1666073.6 -0.00064348818 0.00022048652 0.00056792611 
  461000    2.4787052  0.002215027    284904.75    1670046.6 -0.00059400585 0.00021576121 0.00053137229 
  462000    2.4794197  0.002230419    284904.75    1673912.2 -0.00058798216 0.00019143113 0.00038970706 
  463000    2.4777105 0.0022160862    284904.75    1677774.5 -0.00056235965 0.00016207735 0.00041328209 
  464000    2.4842864 0.0022124258    284904.75    1681615.2 -0.00056818698 0.00016580375 0.00042037099 
  465000    2.4779994  0.002265982    284904.75    1685375.8 -0.00038625178 0.00019013717 0.00035190463 
  466000     2.481191 0.0022140705    284904.75    1689208.6 -0.00044218974 0.00020857212 0.00037050881 
  467000    2.4788209 0.0022138133    284904.75    1693103.3 -0.00033926655 0.00020423593 0.00035181484 
  468000    2.4799809 0.0022192268    284904.75    1696981.6 -0.00033005953 0.0001821708 0.00032900696 
  469000    2.4800325 0.0022121676    284904.75    1700849.6 -0.00034239894 0.00024117601 0.00033568699 
  470000    2.4779691 0.0022152936    284904.75    1704749.7 -0.00037156715 0.00024085756 0.00032062506 
  471000    2.4799326 0.0022129272    284904.75    1708683.5 -0.00038244062 0.00024147799 0.00030406077 
  472000    2.4791295 0.0022135573    284904.75    1712613.9 -0.00036174069 0.00019568392 0.00018786245 
  473000    2.4804591 0.0022155864    284904.75    1716429.8 -0.00029179411 0.00018536428 0.00012921251 
  474000    2.4800504 0.0022124686    284904.75      1720213 -0.00023689754 0.00025542552 0.00021679378 
  475000    2.4785098 0.0022139339    284904.75    1723969.7 -0.00030508472 0.00033353034 0.00022976039 
  476000    2.4820302 0.0022119996    284904.75    1727751.8 -0.00034628137 0.00041024526 0.00019083819 
  477000    2.4806647 0.0022172989    284904.75    1731655.8 -0.00034758565 0.0003903891 0.00021600903 
  478000    2.4783837 0.0022148227    284904.75    1735659.7 -0.0003342085 0.00039642707 0.00024347285 
  479000    2.4781998 0.0022394075    284904.75    1739641.4 -0.00036451483 0.00045769481 0.00025735574 
  480000    2.4814293 0.0022120481    284904.75    1743680.1 -0.00032732576 0.00046733752 0.0002171125 
  481000    2.4813457 0.0022389389    284904.75    1747878.2 -0.00030649244 0.00049946351 0.00023651089 
  482000    2.4816578 0.0022131563    284904.75    1752142.7 -0.00018832747 0.00054207782 0.00029464529 
  483000    2.4800346 0.0022120115    284904.75    1756433.6 -0.00020824679 0.00054858986 0.0002349107 
  484000    2.4776623 0.0022161517    284904.75    1760684.3 -0.00013301548 0.0004942278 0.00017490922 
  485000    2.4789228 0.0022140261    284904.75    1765013.2 -0.00013766953 0.00049113677 0.0001806833 
  486000     2.483788 0.0022140867    284904.75    1769322.9 -0.00029025447 0.00041327922 4.9867915e-05 
  487000    2.4793552 0.0022137291    284904.75    1773744.7 -0.00039625269 0.00042418452 6.185083e-05 
  488000    2.4803993 0.0022116285    284904.75    1778197.7 -0.00037853543 0.00040615221 5.4874496e-05 
  489000    2.4826825   0.00222034    284904.75      1782704 -0.00039489171 0.00039977009 0.0001519792 
  490000    2.4779516 0.0022154554    284904.75    1787236.4 -0.00042481187 0.00048399017 0.00012791427 
  491000     2.480393  0.002220588    284904.75    1791728.2 -0.00041916876 0.00047596538 0.00017744788 
  492000    2.4794786 0.0022125217    284904.75    1796227.5 -0.00037590817 0.00050245283 0.00012561079 
  493000    2.4808766 0.0022119651    284904.75    1800791.9 -0.00040951842 0.00054317251 9.407645e-05 
  494000    2.4801844 0.0022398302    284904.75      1805349 -0.00041848095 0.00050317012 6.8255786e-05 
  495000    2.4800493 0.0022271966    284904.75    1809929.1 -0.00051564823 0.0004943942 0.00013092286 
  496000    2.4776991 0.0022159746    284904.75      1814509 -0.00042020267 0.00047254145 0.00013169285 
  497000    2.4796599 0.0022125715    284904.75    1818962.8 -0.00037479272 0.00050447557 6.0680505e-05 
  498000    2.4786082 0.0022146036    284904.75    1823252.6 -0.0003107056 0.00038979683 2.7227545e-05 
  499000    2.4862719 0.0022050215    284904.75    1827585.4 -0.00027051151 0.00036279723 -6.490021e-05 
  500000    2.4834311 0.0022374487    284904.75    1831843.4 -0.00026445689 0.00035799295 -1.8876744e-05 
  501000    2.4798616  0.002212435    284904.75    1836154.8 -0.00019909904 0.00039648108 -0.00011254516 
  502000    2.4802671 0.0022390757    284904.75    1840495.2 -0.00012633471 0.00035682835 -0.00010678619 
  503000    2.4793617 0.0022132909    284904.75    1844922.1 -0.00014961978 0.00033458479 -0.00014820057 
  504000    2.4831975 0.0022134067    284904.75    1849430.6 4.5865009e-05 0.00029201342 -0.00015324809 
  505000    2.4801658 0.0022129766    284904.75    1853951.4 3.2740897e-05 0.00036239598 -0.00018401022 
  506000    2.4794792 0.0022126573    284904.75    1858529.5 2.565273e-05 0.00035345296 -0.00018468594 
  507000    2.4835057 0.0022118207    284904.75    1863134.7 3.4039356e-05 0.0004051299 -0.00021527262 
  508000    2.4803176 0.0022138226    284904.75    1867680.2 2.1856084e-05 0.00040167657 -9.8833934e-05 
  509000    2.4814866 0.0022136105    284904.75    1872191.6 1.2788465e-05 0.00027837556 -8.7073538e-05 
  510000    2.4828931 0.0022398716    284904.75    1876744.2 6.1695511e-05 0.00025452923 -7.5454968e-05 
  511000    2.4809932 0.0022235397    284904.75    1881223.5 0.00030672736 0.0002235781 -6.5437376e-05 
  512000    2.4799767 0.0022144358    284904.75      1885597 0.00035607865 0.00020485462 -6.2482041e-05 
  513000    2.4808291  0.002216111    284904.75    1890110.9 0.00033870139  0.000110585 -1.714036e-05 
  514000    2.4793858 0.0022150374    284904.75    1894731.4 0.00034062641 0.00010881903 -6.755874e-06 
  515000    2.4774292 0.0022163028    284904.75    1899345.4 0.00031411689 3.116828e-05 -1.5658098e-07 
  516000    2.4802047 0.0022117056    284904.75    1903980.1 0.0003223242 8.0828947e-06 4.7387406e-06 
  517000    2.4783449 0.0022148336    284904.75    1908607.4 0.00032099393 1.6670375e-05 -4.6068827e-07 
  518000     2.479472 0.0022130083    284904.75    1913242.7 0.00038819268 -2.8342248e-05 3.3059162e-05 
  519000    2.4793992 0.0022309022    284904.75    1917927.6 0.0003258292 -5.8239557e-05 -3.5590101e-06 
  520000    2.4805781 0.0022168081    284904.75    1922707.5 0.00034632212 -5.7026668e-06 1.1635901e-05 
  521000    2.4824374 0.0022152045    284904.75    1927391.3 0.0002857848 -1.6760652e-05 8.6881148e-05 
  522000    2.4838796 0.0022142024    284904.75    1931997.3 0.00029615361 -2.0464455e-05 0.00012641083 
  523000    2.4806416 0.0022284456    284904.75    1936676.2 0.00022139596 -2.6324015e-05 0.00012587377 
  524000    2.4810476 0.0022152741    284904.75    1941359.1 0.00023235784 -2.0666535e-06 5.8417798e-05 
  525000    2.4792027 0.0022136404    284904.75    1946068.3 0.00023091355 -3.016991e-06 6.4929544e-05 
  526000    2.4785284 0.0022147397    284904.75    1950816.1 0.00022744115 -1.4827697e-05 6.827795e-05 
  527000    2.4827756 0.0022235038    284904.75    1955496.2 0.00021788992 -1.9101501e-05 6.9342867e-05 
  528000    2.4784133 0.0022145066    284904.75    1960126.7 0.00021957914 -3.2933326e-05 5.7771615e-05 
  529000    2.4827696 0.0022167003    284904.75      1964803 0.00016979486 -5.2987756e-05 5.9368461e-05 
  530000    2.4787786 0.0022144267    284904.75    1969496.7 9.2124478e-05 -6.7270851e-05 4.8606641e-05 
  531000    2.4782686 0.0022479365    284904.75    1974279.8 0.00013228932 -5.8860441e-05 4.4289434e-05 
  532000    2.4782276 0.0022151391    284904.75    1978822.9 0.00020406449 -3.6074953e-05 0.00010610474 
  533000    2.4818896 0.0022097539    284904.75    1983350.2 0.00020165955 -5.226259e-05 0.00011694325 
  534000    2.4803688 0.0022127738    284904.75    1987863.2 0.00026547326 2.8273287e-05 8.7102321e-05 
  535000    2.4816627   0.00223518    284904.75    1992317.6 0.0001265965 3.0976159e-05 8.5619661e-05 
  536000    2.4776148 0.0022911716    284904.75    1996505.1 -0.00023582132 -1.0318797e-05 0.00019634097 
  537000    2.4796838  0.002231568    284904.75    2000453.1 0.00014103419 -4.6882341e-05 0.00014388108 
  538000    2.4798338 0.0022122601    284904.75    2004400.4 0.00015196344 -9.3490566e-05 0.00015714903 
  539000    2.4784915 0.0022141132    284904.75    2008365.8 0.00017432574 -0.00012467494 0.00016134019 
  540000    2.4780784  0.002215084    284904.75    2012334.4 0.00026756137 -0.00015759678 0.00018669782 
  541000    2.4777218 0.0022161412    284904.75    2016298.5 0.00017491896 -0.00015282449 0.00031093116 
  542000    2.4798534 0.0022331582    284904.75    2020250.1 0.00015231534 -0.0001744354 0.00044130812 
  543000    2.4777355 0.0022157683    284904.75    2024203.4 0.00018546363 -0.0001562738 0.00035992867 
  544000    2.4791501 0.0022138539    284904.75    2028102.4 0.00023166725 -0.00021396482 0.00041760457 
  545000    2.4780236 0.0022148356    284904.75    2031976.1 0.00018427915 -0.00020810231 0.00039678596 
  546000    2.4805634 0.0022111197    284904.75      2035868 0.00023453999 -0.00022082562 0.00050133037 
  547000     2.477955 0.0022152949    284904.75      2039751 0.00023206349 -0.00023819575 0.00049787158 
  548000    2.4776931 0.0022158411    284904.75    2043695.7 0.00022288839 -0.00022142849 0.00052469116 
  549000    2.4796623 0.0022127498    284904.75    2047737.4 0.00029088312 -0.00020526871 0.00052287281 
  550000    2.4823943 0.0022086345    284904.75    2051710.5 0.00022752424 -0.00019576009 0.00048157511 
  551000     2.478797 0.0022139027    284904.75    2055715.7 0.00021982791 -0.00021341789 0.00042603763 
  552000    2.4811887 0.0022139453    284904.75    2059757.7  0.000253628 -0.00021519724 0.00044698582 
  553000    2.4780783 0.0022152187    284904.75      2063843 0.00031381937 -0.00014893178 0.00045807548 
  554000    2.4779751 0.0022154824    284904.75    2068029.5 0.00031621801 -0.00018083593 0.0004529122 
  555000     2.482102 0.0022388549    284904.75    2072290.4 0.00030777091 -0.00018610748 0.00044891885 
  556000    2.4768971 0.0022599365    284904.75    2076673.7 0.00056341661 -0.00018630209 0.00042040146 
  557000    2.4797691 0.0022153231    284904.75    2080942.5 0.00034127621 -0.00012030059 0.00036038408 
  558000    2.4808102 0.0022117148    284904.75    2085153.6 0.00039356969 -8.8300385e-05 0.00034300072 
  559000    2.4802398 0.0022122737    284904.75    2089422.6 0.00041158274 -9.2396121e-05 0.00038928298 
  560000    2.4828152 0.0022087803    284904.75    2093753.6 0.00051033975 -0.00012887994 0.00044381276 
  561000    2.4794612  0.002213104    284904.75    2097941.6 0.00046441568 -0.00010788586 0.00039420461 
  562000    2.4834414 0.0022182111    284904.75    2101837.5 0.00050132609 -8.3946722e-05 0.00040064229 
  563000    2.4775005  0.002216508    284904.75    2105707.1 0.00056701098 -9.2376341e-05 0.00030232969 
  564000    2.4822646 0.0022193285    284904.75    2109619.1 0.00039749739 -4.3655294e-05 0.00019437479 
  565000    2.4795668 0.0022128437    284904.75    2113260.4 0.00033707989 -4.541615e-05 0.00029492444 
  566000    2.4776703 0.0022158871    284904.75    2116866.8 0.00033156607 -6.1529302e-05 0.00029726096 
  567000      2.47893 0.0022143227    284904.75    2120506.2 0.00033387846 -7.9416613e-05 0.00031458129 
  568000    2.4804418 0.0022159995    284904.75    2124121.1 0.00039336991 -4.4707823e-05 0.00042073233 
  569000    2.4810973 0.0022143603    284904.75      2127469 0.00042140772 -5.052568e-05 0.00041646784 
  570000    2.4789101  0.002213722    284904.75    2130841.8 0.0003728329 -4.6408544e-05 0.00037425055 
  571000    2.4780322 0.0022154121    284904.75    2134232.4 0.00046554488 -2.3245113e-05 0.00038714116 
  572000    2.4833868 0.0022311642    284904.75    2137413.5 0.00052795641 -3.0073734e-06 0.00031653942 
  573000     2.481954 0.0022115463    284904.75    2140550.9 0.00047149706 -8.5760612e-05 0.00033497872 
  574000    2.4830826 0.0022250238    284904.75    2143724.5 0.00039895239 -0.0001031535 0.00034044649 
  575000    2.4778462 0.0022158437    284904.75    2146976.1 0.00038334821 -8.4948439e-05 0.00033680766 
  576000    2.4793921  0.002213829    284904.75    2150111.1 0.00032471431 -7.9717293e-05 0.00036986392 
  577000    2.4792607 0.0022143718    284904.75    2153142.1 0.00032116823 -4.6810682e-05 0.00036715772 
  578000     2.481091 0.0022329694    284904.75    2156174.3 0.00036327784 0.00011951733 0.00041738857 
  579000    2.4811915 0.0022110753    284904.75    2159216.9 0.00028554057 5.6324423e-05 0.00033548571 
  580000    2.4823061   0.00221134    284904.75    2162260.9 0.00022316232 6.0590799e-05 0.00036566731 
  581000    2.4838738 0.0022083681    284904.75    2165346.4 0.00029407283 8.9976151e-05 0.0003041889 
  582000     2.478541  0.002214327    284904.75      2168434 0.0003151055 0.00014746572 0.00034923203 
  583000    2.4788117 0.0022144821    284904.75    2171508.6 0.00031887028 0.0001203073 0.00016994171 
  584000    2.4825981 0.0022173475    284904.75    2174510.9 0.00034476916 0.00010108792 9.3774665e-05 
  585000    2.4840245 0.0022167227    284904.75    2177574.1 0.00032638021 0.00010236667 0.00013736266 
  586000    2.4814831 0.0022120153    284904.75    2180669.3 0.00027257854 5.707457e-05 0.0001413937 
  587000    2.4837324 0.0022104932    284904.75    2183867.4 0.00024134095 8.0584648e-05 0.0001238053 
  588000    2.4803052 0.0022156664    284904.75    2187134.7 0.00026592928 3.3102434e-05 0.00011867821 
  589000    2.4814287 0.0022108854    284904.75    2190337.1 0.00022777555 -3.672888e-06 0.00016426437 
  590000    2.4791268 0.0022133926    284904.75    2193391.1 0.00014351724 -2.3002508e-05 0.00016732243 
  591000    2.4793562 0.0022138135    284904.75    2196469.1 0.00014167029 2.5939026e-05 0.00018897501 
  592000    2.4773416 0.0022167019    284904.75    2199583.3 0.00010533263 -1.3950606e-05 0.0001300416 
  593000    2.4819335 0.0022439232    284904.75      2202743 0.0002207874 -8.6725418e-05 0.00016153113 
  594000    2.4782179 0.0022149117    284904.75    2206019.6 0.0001261917 -3.3644666e-05 0.00022431384 
  595000    2.4798017  0.002213008    284904.75    2209403.3 0.00014358314 -2.7718868e-05 0.00020076315 
  596000    2.4779215 0.0022153735    284904.75    2212868.7 0.00013262077 -3.6437112e-05 0.0002159972 
  597000    2.4794427  0.002213653    284904.75    2216328.7 5.6744057e-05 -8.5935393e-05 0.00014636942 
  598000    2.4787178 0.0022141024    284904.75    2219447.4 0.00010722685 -0.00010283787 0.00020908144 
  599000    2.4819219 0.0022117064    284904.75    2222571.8 1.1160141e-05 -0.00010711238 0.00022012782 
  600000    2.4814037 0.0022356844    284904.75    2225780.9 -6.3621285e-05 -8.972197e-05 0.00029594053 
  601000    2.4783987 0.0022148624    284904.75    2229021.1 6.2804156e-05 -9.5627061e-05 0.00025592967 
  602000    2.4799737 0.0022170857    284904.75      2232250 6.3504882e-05 -6.3261886e-05 0.00025414291 
  603000    2.4823725 0.0022126657    284904.75    2235497.6 0.0001251094 -3.5806601e-05 0.00029183137 
  604000    2.4739329 0.0022753477    284904.75    2238839.9 0.00010946273 -5.233083e-05 0.00028212682 
  605000    2.4787129 0.0022144781    284904.75    2242314.9 9.7042133e-05 -6.8926073e-05 0.00030179706 
  606000    2.4793841 0.0022130433    284904.75    2245766.6 0.00010783298 -0.00010654806 0.00034786648 
  607000    2.4809601 0.0022154465    284904.75    2249113.6 0.00021052182 -1.7591268e-05 0.00032658992 
  608000    2.4795942 0.0022136345    284904.75      2252469 0.00017894359 -2.0990539e-05 0.00034434935 
  609000    2.4775101 0.0022166353    284904.75    2255968.2 0.0001835894 1.8766206e-05 0.00036565138 
  610000    2.4789553 0.0022140753    284904.75    2259546.8  0.000177847 -8.3419187e-06 0.00035990824 
  611000    2.4780863 0.0022149689    284904.75    2263241.4 0.00016022418 -2.3398062e-05 0.00034214758 
  612000     2.478537 0.0022145461    284904.75    2267045.6 0.00017048122 -2.2909962e-05 0.00032245531 
  613000    2.4818989 0.0022146538    284904.75    2270890.4 0.00015542955 -1.0438433e-05 0.00028382015 
  614000    2.4776205 0.0022159906    284904.75    2274751.9 0.00013181035 -1.7989286e-05 0.00027127103 
  615000    2.4803675 0.0022126577    284904.75    2278597.7 4.3174558e-05 -2.8552064e-05 0.00027004893 
  616000    2.4818128  0.002217887    284904.75      2282355 4.5639271e-06 3.5369776e-05 0.00031217841 
  617000    2.4827437 0.0022207398    284904.75    2286139.4 -1.8199359e-05 3.4599942e-05 0.0003191752 
  618000    2.4810857 0.0022138525    284904.75    2289943.6 2.0871207e-06 6.8792157e-05 0.00028851898 
  619000    2.4776388 0.0022159613    284904.75    2293689.4 -9.3317917e-05 8.6644868e-05 0.00032834257 
  620000    2.4669764 0.0023089754    284904.75    2297417.6 -0.00023829481 0.00019669509 0.00015110439 
  621000    2.4793867 0.0022132741    284904.75    2301201.9 -0.00013346369 1.6858009e-05 0.0003541088 
  622000    2.4774475   0.00221606    284904.75      2305012 -8.0729392e-05 -4.1045002e-05 0.00037619089 
  623000    2.4791464 0.0022137515    284904.75    2308820.8 -6.5167851e-06 7.1033381e-05 0.00032562299 
  624000    2.4882407 0.0022074683    284904.75    2312632.9 -1.9581877e-05 1.5796767e-05 0.00023448047 
  625000    2.4802451 0.0022283973    284904.75    2316410.1 3.7449876e-05 2.8432319e-05 0.00024032954 
  626000    2.4815277 0.0022123882    284904.75    2320332.3 -0.00010113571 5.3573482e-05 0.00026713412 
  627000    2.4782172 0.0022144127    284904.75    2324295.5 -4.2005965e-05 -2.0054913e-05  0.000289901 
  628000    2.4818254 0.0022161428    284904.75    2328201.4 5.1557473e-05 4.1487115e-05 0.00035396079 
  629000    2.4823062 0.0022092426    284904.75    2332096.6 7.9402236e-05 9.9071247e-05 0.0003462621 
  630000     2.480404 0.0022123869    284904.75    2336065.6 1.0675012e-05  4.73598e-05 0.00029801561 
  631000    2.4839227 0.0022155941    284904.75    2340001.3 -3.8731597e-06 0.00011307858 0.00025465534 
  632000    2.4778816 0.0022154249    284904.75    2343942.7 1.143102e-05 0.00025542801 0.00021481081 
  633000    2.4819864 0.0022358439    284904.75    2348007.2 -1.5384831e-05 0.00034494524 0.0003108761 
  634000    2.4826907 0.0022160047    284904.75    2352053.7 -5.9625891e-06 0.00017385623 0.00021949812 
  635000    2.4776898 0.0022158674    284904.75    2356080.4 -3.095602e-05 0.00016261006 0.00021730914 
  636000    2.4839035 0.0022246882    284904.75    2360181.4 -1.6599651e-05 9.9010887e-05 0.0002604503 
  637000    2.4776977 0.0022163186    284904.75    2364499.6 2.3319586e-05 0.0001505122 0.00024008947 
  638000    2.4781543 0.0022146297    284904.75    2368786.4 9.869028e-06 0.00018071022 0.00023741551 
  639000    2.4791655 0.0022133007    284904.75    2372993.6 5.9364326e-07 0.00016790324 0.00031381585 
  640000     2.479721 0.0022265749    284904.75    2377248.6 1.8391677e-05 0.00020706868 0.00024396575 
  641000    2.4793634 0.0022128048    284904.75    2381592.4 2.0359653e-05 0.00022348733 0.00029978076 
  642000    2.4775093 0.0022161775    284904.75    2385892.6 3.7621545e-05 0.00016111327 0.00031142345 
  643000    2.4780829 0.0022153437    284904.75    2390254.3 5.0406457e-05 0.00014518799 0.00032335621 
  644000     2.482144 0.0022513098    284904.75      2394644 8.1074167e-05 0.00024506001 0.00041579859 
  645000    2.4810021 0.0022134049    284904.75    2398915.5 -4.0162709e-05 0.00020505351 0.0002831268 
  646000    2.4801633 0.0022145263    284904.75    2403158.5 -2.9699681e-05 0.00018572557 0.00022358356 
  647000     2.478351 0.0022146477    284904.75    2407412.3 -5.7725365e-05 0.00019008819 0.00026605612 
  648000    2.4794245 0.0022126665    284904.75    2411700.2 -5.6422419e-05 0.00020677694 0.00023040593 
  649000    2.4817966 0.0022149068    284904.75      2415991 -7.3277675e-05 0.00018698513 0.00026877297 
  650000    2.4818174 0.0022199536    284904.75    2420407.4 -2.4092654e-05 0.00014058423 0.00020466067 
  651000    2.4805926 0.0022134721    284904.75    2424868.6 -4.8918582e-05 0.00012942851 0.00021489436 
  652000    2.4796386 0.0022123867    284904.75      2429411 4.8635603e-05 0.00012352131 0.00016338385 
  653000    2.4804122 0.0022127378    284904.75    2433855.7 6.6700508e-05 7.4913622e-05 0.00020403848 
  654000    2.4794442 0.0022148683    284904.75    2438383.6 4.2682772e-05 4.0556754e-05 0.00026832022 
  655000    2.4829374 0.0022096618    284904.75    2442977.8 2.9257655e-05 4.3477937e-05 0.00031934684 
  656000    2.4784817  0.002214668    284904.75    2447651.8 5.8805798e-05 6.8219034e-05 0.00029806371 
  657000    2.4795955 0.0022134075    284904.75    2452365.7 0.00016825687 8.8372219e-06 0.00024091171 
  658000    2.4836101 0.0022107183    284904.75    2457058.1 6.3300505e-05 1.9977253e-05 0.0002071105 
  659000    2.4806435 0.0022134406    284904.75    2461694.4 0.00013257934 3.811549e-05 0.00021080925 
  660000    2.4782329 0.0022146304    284904.75    2466309.6 8.7183069e-05 1.6517673e-05 0.00027130922 
  661000     2.479422 0.0022131896    284904.75    2470899.4 9.2556155e-05 -9.8998626e-05 0.00036262042 
  662000    2.4794785 0.0022133786    284904.75    2475393.3 0.00017329626 -5.6681344e-05 0.00047190227 
  663000    2.4835045  0.002252358    284904.75      2479810 0.0001333196 -7.4987819e-05 0.00044615016 
  664000    2.4802231 0.0022335903    284904.75    2484029.6 0.00020489796 -5.083925e-05 0.00037943356 
  665000    2.4799423 0.0022156555    284904.75      2488076 0.0002014243 -0.00012556091 0.00037286771 
  666000    2.4788892 0.0022135639    284904.75    2491722.5 0.00016796347 -0.00011917513 0.00044924896 
  667000    2.4778259 0.0022157387    284904.75    2495267.1 0.00010885804 -0.00012469184 0.00054922424 
  668000    2.4780883 0.0022153085    284904.75      2498888 0.00014299782 -0.00014168266 0.0005381563 
  669000    2.4794931 0.0022130019    284904.75    2502611.8 0.00010333774 -0.000130658  0.000561241 
  670000     2.479725 0.0022126303    284904.75    2506336.7 0.00017376041 -3.6955866e-05 0.00066315057 
  671000    2.4827682 0.0022108203    284904.75    2510126.3 0.0001729443 -2.5758648e-06 0.00064272311 
  672000     2.480706 0.0022111876    284904.75    2513945.1 0.0001492813 3.8354061e-05 0.00063597516 
  673000    2.4787569 0.0022146595    284904.75    2517823.5 0.00018157832 7.6032095e-05 0.00060444503 
  674000    2.4803891  0.002215976    284904.75    2521808.3 0.00014587235 -6.5796802e-06 0.00058525861 
  675000    2.4846818 0.0022162313    284904.75    2525872.3 0.00014051224 -5.5692262e-06 0.00056435038 
  676000    2.4731413 0.0022753443    284904.75    2529852.6 0.00032671319 8.5134963e-05 0.00072532043 
  677000    2.4795866 0.0022143697    284904.75    2533786.5 0.00021980345 5.9959043e-05 0.00074353068 
  678000    2.4784272 0.0022150908    284904.75      2537727 0.00022424799 0.00011095599 0.00070669754 
  679000    2.4781539 0.0022152068    284904.75    2541727.7 0.00023106783 0.0001230355 0.00071814128 
  680000    2.4839564 0.0022133298    284904.75    2545763.6 0.00024874069 0.00015761365 0.00078373645 
  681000    2.4841691  0.002239133    284904.75    2549833.1 2.0904001e-05 2.3776541e-05 0.00071083781 
  682000     2.480096 0.0022124676    284904.75      2553912 5.2079045e-05 8.7742634e-05 0.00069408092 
  683000    2.4777541 0.0022157591    284904.75    2557992.1 6.8273487e-05 5.5475028e-05 0.00061524905 
  684000    2.4809148 0.0022467552    284904.75      2562036 -4.8387338e-05 5.4413243e-05 0.00062833958 
  685000    2.4812711  0.002210937    284904.75    2565888.3 -8.8018187e-05 1.9990341e-05 0.00059481553 
  686000    2.4825308 0.0022486838    284904.75    2569586.7 -0.00014376713 1.6895926e-05 0.00064974626 
  687000    2.4842952  0.002244013    284904.75    2573195.2 -0.00016011901 0.00016365653 0.00070973337 
  688000    2.4803032  0.002212075    284904.75      2576553 -8.5522877e-05 9.4475288e-05 0.00077432166 
  689000    2.4805911 0.0022173952    284904.75    2579964.6 -8.1495901e-05 0.00014318651 0.00073148546 
  690000    2.4806859 0.0022127703    284904.75    2583375.6 -7.8292344e-05 0.00017272866 0.0007129307 
  691000    2.4815333 0.0022130791    284904.75    2586761.1 -2.9973421e-05 0.00015549013 0.0006651932 
  692000    2.4792479 0.0022131796    284904.75    2590255.6 -2.438884e-05 0.00021443353 0.00071788106 
  693000    2.4847429 0.0022089748    284904.75    2593906.5 -1.408873e-05 0.00019579492 0.00071988078 
  694000    2.4789425 0.0022140285    284904.75    2597676.2 7.5072277e-05 0.00017335429 0.00080823058 
  695000    2.4801289 0.0022118796    284904.75    2601463.5 9.7077226e-05 0.00018271996 0.00075014599 
  696000    2.4785267 0.0022152077    284904.75    2605282.5 9.3355705e-05 0.00013279685 0.00063349167 
  697000    2.4773744 0.0022167607    284904.75    2609152.3 0.00010348619 0.00016551642 0.00065725455 
  698000    2.4818222 0.0022211274    284904.75    2613066.7 0.00012258316 0.0001761483 0.00065772381 
  699000    2.4777604 0.0022156371    284904.75    2616989.7 0.00014242383 9.5241633e-05 0.0008019599 
  700000    2.4786952 0.0022140147    284904.75    2620877.9 0.00022131631 0.00010467158 0.00079841158 
  701000    2.4713475 0.0022840343    284904.75    2624779.8 0.00026462637 0.00011634602 0.00082029621 
  702000    2.4824484 0.0022346325    284904.75    2628744.4 0.00025352877 0.00013695828 0.00083491067 
  703000    2.4799959 0.0022144013    284904.75    2632633.7 0.0002307343 0.00010761978 0.00079306216 
  704000    2.4782083 0.0022150953    284904.75    2636560.1 0.00026711177 0.0001014734 0.00075618353 
  705000    2.4823089 0.0022248481    284904.75    2640430.8 0.0002623681 9.6754208e-05 0.00086416073 
  706000    2.4777182 0.0022162016    284904.75    2644277.5 0.00022529285 0.00011501825 0.00082814919 
  707000    2.4837657 0.0022279248    284904.75    2648116.5 0.00023941517 0.0001258012 0.00086204416 
  708000    2.4822857  0.002256208    284904.75    2651935.7 0.00024464929 9.7691761e-05 0.00076084457 
  709000    2.4793148 0.0022131188    284904.75    2655666.7 0.00024267914  0.000117188 0.00075314851 
  710000    2.4813881 0.0022190199    284904.75    2659463.8 0.00028979724 8.3906037e-05 0.00070731294 
  711000    2.4792989   0.00221319    284904.75    2663325.2 0.00034825875 6.202767e-05 0.00075307846 
  712000    2.4800677 0.0022183436    284904.75    2667315.1 0.00037400044 8.3175596e-05 0.00082781631 
  713000    2.4816953 0.0022130831    284904.75    2671417.1 0.00034849993 6.531503e-05  0.000841609 
  714000    2.4804005 0.0022125596    284904.75    2675438.8 0.00034770334 2.6255086e-05 0.00083578354 
  715000    2.4781256  0.002214932    284904.75    2679430.1 0.00037846117 4.8103784e-05 0.0008049476 
  716000    2.4783133 0.0022149854    284904.75    2683327.5 0.00032521176 3.3048825e-05 0.00067172276 
  717000    2.4764648 0.0022698701    284904.75    2687236.8 0.00023357505 -0.00021905338 0.00067572927 
  718000    2.4805647 0.0022114601    284904.75    2691077.1 0.00023029127 -0.00011742135 0.00066966233 
  719000    2.4802827  0.002211021    284904.75    2694985.6 0.00020743434 -5.3138789e-05 0.00072269836 
  720000    2.4809973 0.0022307761    284904.75      2698940 0.0001704529 -1.6459908e-05  0.000664102 
  721000    2.4785073 0.0022148722    284904.75    2702897.6 0.00017382524 -7.1878277e-05 0.00064602736 
  722000    2.4883204  0.002218992    284904.75      2706854 0.00015701524 -7.1851559e-05 0.00054662168 
  723000    2.4814975 0.0022202921    284904.75    2710777.3 0.00018195872 2.1471026e-05 0.00048518142 
  724000     2.478345 0.0022148359    284904.75    2714597.7 0.0001408611 -2.4113994e-05 0.00043985096 
  725000    2.4805768 0.0022110848    284904.75    2718370.1 2.005143e-05 4.7228484e-05 0.00052798124 
  726000    2.4781557 0.0022148834    284904.75    2722047.7 9.7816097e-06 0.00010848555 0.00049784171 
  727000    2.4787815 0.0022138177    284904.75      2725700 7.8530334e-06 8.5309061e-05 0.0004666026 
  728000    2.4802728 0.0022184797    284904.75    2729374.3 1.2245705e-05 7.0423052e-05 0.00046845672 
  729000    2.4774652 0.0022163728    284904.75    2733061.1 3.8305093e-05 3.2704601e-05 0.00044509775 
  730000     2.477826 0.0022158961    284904.75    2736817.7 8.7870955e-05 5.9018301e-05 0.00037715998 
  731000    2.4781921  0.002215216    284904.75    2740711.2 5.2471038e-05 7.5507691e-05 0.00032593141 
  732000    2.4839969 0.0022334346    284904.75    2744696.7 5.8021512e-05 4.8749936e-05 0.00028133354 
  733000    2.4807748 0.0022154467    284904.75    2748679.3 0.00015397638 0.00011414268 0.0003440204 
  734000    2.4776627 0.0022160436    284904.75    2752615.3 0.00017389054 9.0581605e-05 0.00036576094 
  735000    2.4753195 0.0022810564    284904.75    2756643.6 0.00013986488 0.00017247572 0.00039820925 
  736000    2.4775115 0.0022161825    284904.75    2760703.5 0.00017614966 0.00012405116 0.00038685368 
  737000    2.4807728  0.002211898    284904.75    2764820.8 0.00021725373 0.00010390663 0.00032082418 
  738000    2.4814708 0.0022130659    284904.75    2768887.4 0.00025346726 6.9302745e-05 0.00032376667 
  739000      2.48246 0.0022405856    284904.75    2772638.6 0.00019581635 2.0962236e-06 0.00049902278 
  740000    2.4792621 0.0022125978    284904.75    2776198.4 0.00031494434 -5.818962e-07 0.00032844256 
  741000    2.4792976  0.002212834    284904.75      2779796  0.000300728 4.3075945e-05 0.00030078927 
  742000    2.4803185 0.0022136995    284904.75    2783336.6 0.00032566559 1.4974492e-06 0.00048217286 
  743000    2.4777515 0.0022157598    284904.75    2786811.1 0.00031936005 -7.3006797e-05 0.00044106537 
  744000    2.4783942 0.0022447833    284904.75    2790380.4 0.00034316229 -0.00015765882 0.00038279917 
  745000    2.4846088 0.0022193496    284904.75      2794148 0.00031009536 -0.00019426917 0.00038212295 
  746000    2.4813208 0.0022126058    284904.75    2797813.1 0.00023439418 -0.00014882022 0.0003294267 
  747000    2.4816763 0.0022121262    284904.75    2801333.5 0.00019093604 -0.00020160898 0.00032191828 
  748000    2.4803185 0.0022123625    284904.75    2804955.7 0.00016749959 -0.00019504125 0.00024175723 
  749000    2.4796154 0.0022133192    284904.75    2808698.6 0.00010234455 -0.00011974271 0.00021577711 
[...]
  846000    2.4811434 0.0022173078    284904.75    3271771.9 -0.00032264321 -0.00010887951 0.00047176661 
  847000    2.4813749 0.0022149214    284904.75    3277012.6 -0.0002564233 -9.8012093e-05 0.00047154689 
  848000    2.4616424 0.0023551168    284904.75    3282300.9 8.885262e-05 -7.7777619e-05 7.5507549e-06 
  849000    2.4824915 0.0022140586    284904.75    3287388.8 -0.00032741484 -0.0001306721 0.00044756476 
  850000    2.4814734 0.0022110858    284904.75    3292510.7 -0.00031063857 -8.7336401e-05 0.00039555653 
  851000    2.4797268 0.0022138416    284904.75    3297612.4 -0.00014482166 -7.1641424e-05 0.00040409343 
  852000     2.482825 0.0022097354    284904.75    3302881.5 -8.4182482e-05 -2.0144395e-05 0.00044552105 
  853000    2.4805872 0.0022117304    284904.75    3308300.2 -0.00010746458  1.21971e-05 0.00044302572 
  854000    2.4818697 0.0022113847    284904.75    3313819.2 -0.00012619681 6.4667127e-05 0.00037888612 
  855000    2.4838538 0.0022237261    284904.75    3319102.5 -0.0001861068 3.6253161e-05 0.00040603477 
  856000    2.4842336 0.0022455011    284904.75    3324359.2 -0.00027763059 -1.0643743e-05 0.00043319178 
  857000    2.4818772 0.0022123795    284904.75    3329712.6 -0.00020775857 -3.7393806e-06 0.00030272397 
  858000    2.4823633 0.0022100741    284904.75    3335078.5 -0.00017299809 -1.9413929e-05 0.00030410826 
  859000    2.4812679 0.0022220413    284904.75    3340464.8 -0.00018345163 -2.8371773e-05 0.00030670744 
  860000    2.4834684 0.0022081205    284904.75    3345939.8 -0.00011361999 -7.8825337e-05 0.00024919283 
  861000    2.4814892 0.0022108126    284904.75    3351373.5 -2.9411392e-05 -7.5766183e-05 0.00019222777 
  862000    2.4782549 0.0022149408    284904.75    3356640.7 -0.00013672273 -0.00012014954 0.00016479759 
  863000     2.479566 0.0022128174    284904.75    3361901.8 -0.00015411202 -0.00010768604 0.00018573461 
  864000    2.4826119 0.0022089555    284904.75    3366950.3 -0.00017573357 -0.00016395655 0.00016210277 
  865000    2.4762377 0.0022634513    284904.75    3371696.3 0.00010626979 1.4489543e-05 0.00045432155 
  866000    2.4812306 0.0022121116    284904.75    3376397.7 -0.00014315902 -0.00025435094 0.00011287007 
  867000    2.4804402 0.0022434693    284904.75    3381078.4 -7.012444e-05 -0.00027971877 0.00015871712 
  868000    2.4794283 0.0022128087    284904.75    3385565.5 -0.00028251568 0.00010803432 0.00028693427 
  869000    2.4791929 0.0022133642    284904.75    3390333.3 -0.00040935762 0.00017760646 0.00031837774 
  870000    2.4815632 0.0022108851    284904.75    3395252.9 -0.00045174679 0.00011507517 0.00027456575 
  871000     2.481143 0.0022125564    284904.75    3400182.5 -0.00049562733 0.00013752625 0.00027225021 
  872000    2.4775214 0.0022166051    284904.75    3404852.8 -0.00051617854 -1.427475e-05 0.0002606626 
  873000    2.4792002 0.0022131808    284904.75    3409313.9 -0.00050621621 -0.00018470931 0.00023968161 
  874000    2.4808032 0.0022110613    284904.75    3413841.2 -0.00042627236 -0.00018236412 0.00020426513 
  875000    2.4825275 0.0022210496    284904.75    3418377.2 -0.00035020518 -0.00015142441 0.00015059642 
  876000    2.4823428 0.0022124815    284904.75    3422872.7 -0.00040370081 -9.1585278e-05 0.00018497265 
  877000    2.4813428 0.0022362158    284904.75    3427433.9 -0.00040279421 -0.00013578293 0.0001340412 
  878000    2.4810212 0.0022209361    284904.75    3432102.6 -0.00046232761 -0.00014912699 9.8637031e-05 
  879000    2.4816133 0.0022235834    284904.75    3436683.8 -0.00045017198 -2.7139002e-05  4.96422e-05 
  880000    2.4800154 0.0022123056    284904.75    3441291.7 -0.00046060885 -6.3133643e-05 0.00013392312 
  881000    2.4806478 0.0022252894    284904.75    3445948.9 -0.00050510739 -0.00011156093 0.00011642789 
  882000    2.4815833 0.0022123495    284904.75      3450661 -0.0005684006 -0.00011485098 8.1492766e-05 
  883000    2.4786489 0.0022141405    284904.75    3455424.3 -0.00052051216 -0.00010302458 8.4550915e-05 
  884000    2.4815941 0.0022102658    284904.75      3460177 -0.00049408006 -4.9499816e-05 4.2069188e-05 
  885000    2.4709548 0.0022903677    284904.75    3464921.3 -7.4735366e-05 -0.00019993589 0.00012734849 
  886000    2.4789642 0.0022394329    284904.75    3469604.1 -0.00030571304 -4.6534428e-05 9.8572046e-05 
  887000    2.4815803 0.0022332768    284904.75    3474382.5 -0.0003613061 -0.00010874207 0.00019053695 
  888000    2.4810351 0.0022123241    284904.75    3479153.3 -0.0003880636 -9.2672125e-05 0.00015295578 
  889000    2.4776967 0.0022158388    284904.75    3483959.6 -0.0003888426 -9.4822959e-05 0.00016862709 
  890000    2.4818188 0.0022105134    284904.75    3488843.5 -0.00025722304 -1.2401801e-05 0.00021116611 
  891000    2.4830172 0.0022181034    284904.75    3493768.8 -0.00019690002 -9.590318e-05 0.00021443126 
  892000    2.4781153 0.0022150721    284904.75    3498804.9 -0.00021943798 -8.6112078e-05 0.00019220495 
  893000    2.4796503 0.0022123173    284904.75    3503875.4 -0.00020608942 -0.00011677421 0.00026821957 
  894000    2.4825156 0.0022284215    284904.75    3508810.6 -0.00014929454 -0.00010081853 0.00025804023 
  895000    2.4839953  0.002208107    284904.75    3513746.4 -4.8393281e-05 -0.00019180279 0.00029429756 
  896000    2.4836934 0.0022210209    284904.75    3518675.6 -0.00019961991 -0.00018338911 0.0003877853 
  897000    2.4805729  0.002218347    284904.75    3523585.4 -0.00023997823 -0.00016561871 0.00036311624 
  898000    2.4806001 0.0022133242    284904.75    3528465.7 -0.00022386425 -0.00017057353 0.00038086737 
  899000    2.4800666 0.0022144379    284904.75    3533374.8 -0.00027754104 -0.00014688847 0.00027444033 
  900000    2.4792374 0.0022141084    284904.75    3538075.9 -0.00030749532 -0.00019607599 0.00037427459 
  901000    2.4778092  0.002215868    284904.75    3542685.8 -0.00032252708 -0.00015591885 0.00036380439 
  902000    2.4840359 0.0022134641    284904.75    3547241.9 -0.00016477132 -0.0001212442 0.00042906199 
  903000    2.4797138  0.002213311    284904.75    3551606.5 -0.00021548846 7.4048241e-05 0.00030983572 
  904000     2.478638 0.0022366114    284904.75    3555978.1 -0.00041263683 -0.00010883116 0.00032287871 
  905000    2.4819475 0.0022152763    284904.75    3560264.9 -0.00016504362 9.4952229e-05 0.00028784983 
  906000    2.4809898 0.0022212406    284904.75      3564676 -0.00012841421 0.00013324085 0.00034129021 
  907000    2.4789765 0.0022141533    284904.75    3569106.5 -0.00016909647 0.00025176524 0.00029240087 
  908000     2.479834 0.0022187808    284904.75    3573471.7 -0.00012743489 0.00034116027 0.00015284925 
  909000    2.4775095  0.002216378    284904.75    3577802.4 -0.00015021642 0.00033280921 0.0001106693 
  910000    2.4836803 0.0022643564    284904.75    3582253.4 -0.00027045317 0.00019071885 0.00026675352 
  911000    2.4784037 0.0022144001    284904.75    3586835.8 -6.7787298e-05 4.8406857e-05 9.9835882e-05 
  912000    2.4818777 0.0022129438    284904.75    3591318.1 -4.1733751e-05 8.6854863e-05 8.1886467e-05 
  913000    2.4745515 0.0022789899    284904.75      3595859 -1.8489236e-05 8.7863605e-05 7.320094e-05 
  914000     2.482655 0.0022101816    284904.75    3600372.8 7.5407567e-06 0.00012015786 9.8199714e-05 
  915000    2.4798053  0.002213422    284904.75    3604878.1 -7.3184146e-05 0.00012960717 8.9253679e-05 
  916000     2.481254 0.0022195989    284904.75    3609483.3 -9.9080741e-05 0.00014517246 1.6358614e-05 
  917000    2.4912591 0.0022155099    284904.75    3614336.1 -0.00013464841 6.158904e-05 8.5020355e-06 
  918000    2.4812929 0.0022101383    284904.75    3619209.2 -6.191113e-05 -6.6223972e-05 0.00010119568 
  919000    2.4778177 0.0022158622    284904.75    3624122.5 -3.3885057e-05 -6.5752199e-05 0.00011252567 
  920000    2.4798234 0.0022127421    284904.75    3629120.1 -3.8402249e-05 -6.3180719e-05 0.00012714681 
  921000    2.4789618 0.0022133983    284904.75    3634189.4 9.2198039e-05 -9.2144444e-06 0.00012618418 
  922000    2.4793273 0.0022627885    284904.75    3639347.1 0.00012466387 -1.3716188e-05 3.4210148e-05 
  923000    2.4790449 0.0022140054    284904.75    3644579.2 3.6543818e-05 1.3803057e-05 0.00011153236 
  924000    2.4799106 0.0022132741    284904.75    3649889.5 2.8675508e-05 1.4460404e-05 0.00010124074 
  925000    2.4835047 0.0022199505    284904.75    3655247.8 6.1236706e-05 -3.8052423e-05 0.00010778389 
  926000    2.4807344 0.0022241934    284904.75    3660655.7 4.2855478e-05 -5.7688939e-05 0.0001587458 
  927000    2.4786242 0.0022612118    284904.75      3665861 7.6167646e-05 -6.8540392e-05 0.00011841103 
  928000     2.481165 0.0022109103    284904.75    3671043.4 3.3903042e-05 -6.5640442e-06 9.1312378e-05 
  929000    2.4796799  0.002213244    284904.75    3676199.7 1.1940555e-05 -6.6502448e-05 -2.5163024e-05 
  930000    2.4797924 0.0022139917    284904.75    3681484.4 9.6012476e-06 -4.2482923e-05 1.2177267e-05 
  931000    2.4791149 0.0022139897    284904.75    3686832.5 6.018197e-05 -3.3196593e-05 2.862047e-05 
  932000    2.4785023 0.0022750536    284904.75    3692214.7 0.00013163383 8.2628236e-05 6.3186234e-05 
  933000    2.4795961  0.002227841    284904.75      3697472 5.464795e-05 3.9199829e-05 6.1473369e-05 
  934000    2.4818126 0.0022148074    284904.75    3702661.1 -9.956181e-06 5.4854453e-05 0.00010276144 
  935000     2.477768 0.0022159334    284904.75    3707768.6 3.9077974e-05 1.8536207e-05 0.00011005874 
  936000    2.4775571 0.0022162869    284904.75      3712974 3.0395447e-05 2.0008957e-05 3.3889325e-05 
  937000    2.4803528 0.0022276826    284904.75    3718144.8 7.0468754e-05 7.8917588e-05 5.9533594e-05 
  938000     2.479856  0.002212856    284904.75      3723279 1.3224662e-05 0.00022147542 5.6643321e-05 
  939000    2.4819434 0.0022135036    284904.75    3728386.3 -8.8685595e-05 0.00019568052 3.1036427e-05 
  940000    2.4784767 0.0022148704    284904.75    3733512.4 -9.7150471e-05 0.00029764931 0.00018177247 
  941000    2.4775274 0.0022162271    284904.75    3738707.5 -0.00011584087 0.00023449929 0.00028428283 
  942000    2.4791154 0.0022569724    284904.75      3743936 -7.4353708e-05 0.00026988977 0.00029248833 
  943000     2.482456 0.0022151452    284904.75    3748939.7 8.3767944e-05 0.00036838547 0.00036562296 
  944000    2.4834103 0.0022148572    284904.75      3753857 0.00017588578 0.00039540917 0.00039603917 
  945000    2.4820323 0.0022107827    284904.75    3758792.9 0.00019836747 0.00038507352 0.00041944716 
  946000    2.4782826 0.0022149487    284904.75    3763789.6 0.00013373995 0.00035436294 0.00037947441 
  947000    2.4828726 0.0022074947    284904.75    3768860.8 0.00023116384 0.00041527277 0.00039846185 
  948000    2.4807646 0.0022108678    284904.75    3773861.9 0.00028742712 0.00049266021 0.0004254073 
  949000    2.4801222 0.0022209911    284904.75    3778822.7 0.00026477961 0.00051366245 0.0004387906 
  950000    2.4806418 0.0022352592    284904.75    3783902.1 0.00024205301 0.00058825173 0.00039434931 
  951000    2.4805977 0.0022119084    284904.75    3789030.4 0.00024153547 0.00056085593 0.00042284842 
  952000     2.478074 0.0022150823    284904.75    3794055.8 0.00020495257 0.00047470562 0.00035329972 
  953000    2.4779951  0.002215132    284904.75    3798927.7 0.0001634251 0.00049936776 0.00034982319 
  954000    2.4803742 0.0022153679    284904.75    3803681.9 0.00020244521 0.00054821807 0.00037656722 
  955000    2.4815341 0.0022107231    284904.75    3808409.2 0.00031113498 0.00055989057  0.000318124 
  956000    2.4797666 0.0022388136    284904.75    3812820.6 0.00048834984 0.00061270928 0.00036388712 
  957000    2.4808633 0.0022337858    284904.75    3817055.1  0.000308384 0.00065976424 0.00014459527 
  958000    2.4788058  0.002213925    284904.75    3821226.4 0.00030225332 0.00067671122 0.00013939147 
  959000    2.4803792 0.0022175559    284904.75    3825463.4 0.00030916024 0.00085827046 9.5364604e-05 
  960000    2.4800396 0.0022151549    284904.75    3829887.7 0.00027101168 0.00084238283 0.00010149748 
  961000    2.4813394 0.0022124245    284904.75    3834283.7 0.00035361638 0.00086870276 9.4145351e-05 
  962000    2.4783063  0.002214834    284904.75    3838756.6 0.00042941888 0.00093751447 -3.5282107e-05 
  963000    2.4798397 0.0022329557    284904.75      3843293 0.00045380353 0.00094565776 5.3302499e-05 
  964000    2.4798905 0.0022130155    284904.75    3847925.6 0.00048488609 0.00091963986 1.8358803e-05 
  965000    2.4775025 0.0022165154    284904.75    3852750.3 0.00053796444 0.00083274051 -8.2847679e-05 
  966000    2.4795547 0.0022291479    284904.75    3857580.3 0.00050021073 0.00083788011 -5.6500897e-05 
  967000    2.4803422 0.0022148071    284904.75    3862203.9 0.00047975554 0.00089771065 -3.5458261e-05 
  968000    2.4843984  0.002224421    284904.75    3866709.5 0.00035484798 0.00095188824 0.0001474911 
  969000     2.478176 0.0022150267    284904.75      3871277 0.00039255681 0.00092176578 0.00013831014 
  970000    2.4808784 0.0022110731    284904.75    3875909.6 0.00039892391 0.00097769259 8.4857682e-05 
  971000    2.4774502 0.0022163805    284904.75    3880617.5 0.00041477945 0.00099363598 9.8571503e-05 
  972000    2.4840238 0.0022169389    284904.75      3885241 0.00043903677 0.00097567062 3.7298936e-05 
  973000    2.4784306 0.0022142815    284904.75    3889857.3 0.00048883763 0.00097786331 0.00010136569 
  974000    2.4813806 0.0022198003    284904.75    3894552.9 0.00047751609 0.00097945196 0.00010251104 
  975000    2.4800957 0.0022135713    284904.75    3899325.2 0.0004497571 0.0010017024 0.00011534933 
  976000     2.482083 0.0022181018    284904.75    3904143.3 0.00044451485 0.0010427552 0.00011744762 
  977000    2.4790363 0.0022133108    284904.75    3908930.4 0.00058485263 0.0010110848 0.00021352476 
  978000     2.478266 0.0022442749    284904.75    3913693.5 0.00059833808 0.00087395928 0.00040405081 
  979000    2.4803943 0.0022447691    284904.75    3918430.8 0.00058752532 0.00097883811 9.7254966e-05 
  980000    2.4797959 0.0022130812    284904.75    3923084.7 0.00061647642 0.0010166698 0.00015377454 
  981000    2.4791667 0.0022142516    284904.75    3927898.5 0.00063336451 0.0010139343 0.00017924697 
  982000     2.482208 0.0022212977    284904.75    3932810.1 0.00064245287 0.00092088916 0.00023400028 
  983000    2.4803233 0.0022122237    284904.75      3937681 0.0006229592 0.00090372542 0.00026061188 
  984000    2.4809872 0.0022150058    284904.75    3942597.6 0.00047190737 0.00076224653 0.00015213497 
  985000    2.4824651 0.0022114067    284904.75    3947551.2 0.00047356196 0.00075614798 0.00019470422 
  986000     2.479901 0.0022132652    284904.75    3952551.8 0.00045173868 0.00074526763 0.00020022038 
  987000    2.4854083 0.0022240557    284904.75    3957434.5 0.00041354827 0.00067767238 0.00018732783 
  988000    2.4820221 0.0022114504    284904.75    3962298.7 0.00049323255 0.00068343565 0.00023783435 
  989000     2.480523  0.002212043    284904.75    3967279.6 0.00053641697 0.00063767748 0.00030981499 
  990000    2.4843148 0.0022143202    284904.75    3972278.8 0.00038607347 0.00058501257 0.00023441891 
  991000    2.4855462 0.0022143711    284904.75      3977053 0.00040530264 0.00061982254 0.00020738654 
  992000    2.4819981 0.0022167525    284904.75    3981906.7 0.00041702023 0.00057200603 0.00030352883 
  993000    2.4786088 0.0022434079    284904.75    3986804.7 0.00031393362 0.00053640635 0.00015407491 
  994000    2.4806461 0.0022291843    284904.75    3991626.1 0.00035811733 0.00046900646 0.00021578227 
  995000    2.4803383 0.0022228687    284904.75    3996295.8 0.00040135158 0.00047233928 0.00024867299 
  996000    2.4834056 0.0022291258    284904.75    4000782.4 0.00037689584 0.00048467874 0.00024478962 
  997000    2.4796429 0.0022125123    284904.75    4005098.7 0.00039565876 0.00049465867 0.00025978934 
  998000    2.4805458 0.0022117542    284904.75    4009605.4 0.00040663706 0.0004874002 0.00024692642 
  999000    2.4817217 0.0022109575    284904.75      4014057 0.00025051778 0.00035441307 0.00016045905 
 1000000    2.4743713 0.0023035999    284904.75    4018392.6 0.00025768468 9.5549563e-05 5.0652523e-05 
Loop time of 199.536 on 1 procs for 1000000 steps with 256 atoms

Pair  time (%) = 2.52161 (1.26374)
Neigh time (%) = 14.142 (7.08743)
Comm  time (%) = 1.69079 (0.847361)
Outpt time (%) = 0.0869555 (0.0435788)
Other time (%) = 181.095 (90.7579)

Nlocal:    256 ave 256 max 256 min
Histogram: 1 0 0 0 0 0 0 0 0 0
Nghost:    76 ave 76 max 76 min
Histogram: 1 0 0 0 0 0 0 0 0 0
Neighs:    13 ave 13 max 13 min
Histogram: 1 0 0 0 0 0 0 0 0 0

Total # of neighbors = 13
Ave neighs/atom = 0.0507812
Neighbor list builds = 72172
Dangerous builds = 0
#	run			10000
	unfix			1
	uncompute		myKE
	uncompute		myPE
	uncompute		myStress
	uncompute		flux
	uncompute		myDis
	unfix			JJ

	next seed
	next iseed
jump lmp.in.gk loop_seed
variable iseed loop 10
variable seed index 11111 22222 33333 44444 55555 66666 77777 88888 99999 11112
clear

# Lennard-Jones
#Prepare Geometry---------------------------------------------------------------
units			lj
atom_style		atomic
read_data		lmp.in.x0.1
  orthogonal box = (0 0 0) to (65.8011 65.8011 65.8011)
  1 by 1 by 1 MPI processor grid
  256 atoms
#Initialize Structure-----------------------------------------------------------
#mass           	1  1.0
#group         		Ar type = 1
#LJ Potentials------------------------------------------------------------------
pair_style		lj/cut 2.5
pair_coeff		* * 1.0 1.0
pair_modify          	shift yes
#pair_modify   	tail no

#Variables----------------------------------------------------------------------
#LJ Parameters
variable    	kB 		equal 1.3806504e-23 	# [J/K] Boltzmann
variable	sigma_Ar 	equal 3.4e-10 		# m
variable	eps_Ar		equal 1.67e-21		# J
variable	mass_Ar		equal 6.63e-26		# kg
variable	tau_Ar		equal 2.1423e-12	# s
#thermo Parameters
variable    	T_melt 		equal 300*(${kB}/${eps_Ar})
variable    	T_melt 		equal 300*(1.3806504000000001236e-23/${eps_Ar})
variable    	T_melt 		equal 300*(1.3806504000000001236e-23/1.6699999999999999942e-21)
variable	T_0K		equal 0.00001
variable	T_2_5K		equal 2.5*(${kB}/${eps_Ar})
variable	T_2_5K		equal 2.5*(1.3806504000000001236e-23/${eps_Ar})
variable	T_2_5K		equal 2.5*(1.3806504000000001236e-23/1.6699999999999999942e-21)
variable	T_5K		equal 5*(${kB}/${eps_Ar})
variable	T_5K		equal 5*(1.3806504000000001236e-23/${eps_Ar})
variable	T_5K		equal 5*(1.3806504000000001236e-23/1.6699999999999999942e-21)
variable	T_10K		equal 10*(${kB}/${eps_Ar})
variable	T_10K		equal 10*(1.3806504000000001236e-23/${eps_Ar})
variable	T_10K		equal 10*(1.3806504000000001236e-23/1.6699999999999999942e-21)
variable	T_15K		equal 15*(${kB}/${eps_Ar})
variable	T_15K		equal 15*(1.3806504000000001236e-23/${eps_Ar})
variable	T_15K		equal 15*(1.3806504000000001236e-23/1.6699999999999999942e-21)
variable	T_300K		equal 300*(${kB}/${eps_Ar})
variable	T_300K		equal 300*(1.3806504000000001236e-23/${eps_Ar})
variable	T_300K		equal 300*(1.3806504000000001236e-23/1.6699999999999999942e-21)

variable   	dt 		equal 0.002
variable	quench_rate	equal 1.0
variable	quench_length 	equal 10000
#kappa parameters
variable    	p 		equal 100000 		# correlation length
variable    	s 		equal 5  		# sample interval
variable    	d 		equal $p*$s 		# dump interval
variable    	d 		equal 100000*$s 		
variable    	d 		equal 100000*5 		

#SED parameters
variable	w_step		equal 2^5
variable	w_total		equal 2^16
variable	t_total		equal 2^18
variable	num_ffts	equal ${t_total}/${w_total}
variable	num_ffts	equal 262144/${w_total}
variable	num_ffts	equal 262144/65536

#------------ RUN TEMP ---------------------------------------------------------------------
variable 	T_run 		equal ${T_300K}
variable 	T_run 		equal 2.4802102994011980819
#------------ RUN TEMP ---------------------------------------------------------------------

log 	log_heat_${iseed}.lammps
log 	log_heat_7.lammps
