
#------------ NVE rescale ---------------------------------------------------------------------

	velocity 		all create ${T_run} ${seed} rot yes dist gaussian
	velocity 		all create 2.4802102994011980819 ${seed} rot yes dist gaussian
	velocity 		all create 2.4802102994011980819 99999 rot yes dist gaussian

	fix 			1 all nve
	fix 			2 all temp/rescale 1 ${T_run} ${T_run} 0.01 1.0
	fix 			2 all temp/rescale 1 2.4802102994011980819 ${T_run} 0.01 1.0
	fix 			2 all temp/rescale 1 2.4802102994011980819 2.4802102994011980819 0.01 1.0
	timestep		${dt}
	timestep		0.0020000000000000000416
	thermo_style  		custom step temp press etotal vol
	thermo			1000
	run             	200000
Memory usage per processor = 2.23315 Mbytes
Step Temp Press TotEng Volume 
       0    2.4802103 0.0022091225    -1.815808    284904.75 
    1000    2.4752543 0.0018405418    2.6373211    284904.75 
    2000    2.4741288  0.001936056    2.8381083    284904.75 
    3000    2.4794445 0.0021706126    2.8833133    284904.75 
    4000    2.4849521 0.0019515411     2.929365    284904.75 
    5000    2.4834796 0.0019454529    2.9455142    284904.75 
    6000    2.4758415 0.0020252336    2.8856366    284904.75 
    7000    2.4812366 0.0021920185    2.9328482    284904.75 
    8000    2.4828063 0.0020156026    2.9652529    284904.75 
    9000    2.4824965 0.0019966521    2.9965724    284904.75 
   10000    2.4708501 0.0020984119    2.9958289    284904.75 
   11000    2.4878893 0.0021243994    3.0265867    284904.75 
   12000    2.4861116 0.0021825017    3.0115697    284904.75 
   13000    2.4752263 0.0022015992    3.0584444    284904.75 
   14000    2.4841613 0.0019114826    3.0581797    284904.75 
   15000    2.4720646 0.0020310971    3.0589055    284904.75 
   16000    2.4832178  0.002111781    3.0582413    284904.75 
   17000    2.4842177 0.0020288754    3.1342979    284904.75 
   18000    2.4770608 0.0019680711    3.1046339    284904.75 
   19000    2.4783206 0.0022485186    3.1197044    284904.75 
   20000    2.4846329  0.002070067    3.1182964    284904.75 
   21000    2.4828537 0.0021187149    3.1186176    284904.75 
   22000    2.4858424 0.0020990997    3.0874391    284904.75 
   23000    2.4860247 0.0020491316    3.1340047    284904.75 
   24000    2.4793503   0.00210376    3.1339708    284904.75 
   25000    2.4800225  0.002270753    3.1183245    284904.75 
   26000    2.4865704 0.0020252616    3.1335469    284904.75 
   27000    2.4811352 0.0020799074    3.1493988    284904.75 
   28000    2.4812633 0.0021278647    3.1641355    284904.75 
   29000    2.4778386 0.0021962904     3.163785    284904.75 
   30000    2.4775085 0.0020628672    3.1490001    284904.75 
   31000    2.4873429  0.002201953    3.2095274    284904.75 
   32000    2.4751374 0.0020922971    3.1792892    284904.75 
   33000    2.4854813 0.0021726077    3.2038125    284904.75 
   34000     2.481212 0.0020602582    3.2196932    284904.75 
   35000    2.4813746  0.002182036    3.2349085    284904.75 
   36000    2.4818375 0.0020655592    3.2647949    284904.75 
   37000    2.4900099  0.002097688    3.2814431    284904.75 
   38000     2.479086 0.0020969751    3.2667123    284904.75 
   39000    2.4833826  0.002173319    3.2836384    284904.75 
   40000    2.4864083 0.0020224731    3.3000295    284904.75 
   41000    2.4836435 0.0021675249    3.3152198    284904.75 
   42000    2.4736534  0.002139693    3.3141509    284904.75 
   43000    2.4813484 0.0021328985    3.3139353    284904.75 
   44000    2.4770397  0.002228457    3.2833401    284904.75 
   45000    2.4822176 0.0021876717    3.3145779    284904.75 
   46000    2.4897531 0.0020602905    3.3141728    284904.75 
   47000    2.4826668 0.0022503038    3.3145857    284904.75 
   48000    2.4792887 0.0020820562     3.330428    284904.75 
   49000    2.4717294 0.0020443271    3.3457358    284904.75 
   50000     2.485916 0.0021170162    3.3456573    284904.75 
   51000    2.4808119  0.002083894    3.3456356    284904.75 
   52000    2.4838751 0.0021492229    3.3309215    284904.75 
   53000    2.4820731 0.0021148877    3.3625713    284904.75 
   54000     2.477265 0.0021688709    3.3788446    284904.75 
   55000    2.4889157 0.0021316198    3.3788199    284904.75 
   56000    2.4843765 0.0021670238    3.3957721    284904.75 
   57000    2.4818088 0.0021165037    3.3808228    284904.75 
   58000    2.4828755 0.0021815995    3.3694634    284904.75 
   59000     2.471821 0.0021573267     3.400009    284904.75 
   60000    2.4790774 0.0020982468     3.399651    284904.75 
   61000    2.4785904 0.0021406266    3.3996506    284904.75 
   62000    2.4802103 0.0021295173    3.3848981    284904.75 
   63000    2.4896111 0.0021639909    3.4000336    284904.75 
   64000    2.4772775  0.002243176    3.4151647    284904.75 
   65000    2.4706933 0.0021457336    3.4014908    284904.75 
   66000    2.4769867 0.0021836576    3.4317762    284904.75 
   67000    2.4733002 0.0021883749    3.4167102    284904.75 
   68000    2.4756659   0.00211895    3.4330244    284904.75 
   69000    2.4846234 0.0021542432    3.4329795    284904.75 
   70000    2.4753563   0.00219744    3.4333444    284904.75 
   71000    2.4839726 0.0021482878    3.4333511    284904.75 
   72000    2.4808483 0.0021734794    3.4355547    284904.75 
   73000    2.4797857  0.002147885    3.4219945    284904.75 
   74000    2.4826462 0.0021272863     3.437078    284904.75 
   75000    2.4819687 0.0022235513    3.4218229    284904.75 
   76000    2.4829538 0.0021377503    3.4370772    284904.75 
   77000    2.4789871 0.0021709009     3.437101    284904.75 
   78000    2.4821093 0.0021880938    3.4371988    284904.75 
   79000     2.477466 0.0022393733    3.4387808    284904.75 
   80000    2.4807442 0.0021258551    3.4540954    284904.75 
   81000    2.4783821 0.0021888667    3.4392127    284904.75 
   82000    2.4787523  0.002181979     3.439215    284904.75 
   83000    2.4847695 0.0021269724    3.4551878    284904.75 
   84000    2.4852423 0.0022004536    3.4402323    284904.75 
   85000    2.4747351   0.00216658    3.4417282    284904.75 
   86000    2.4814011 0.0022283311    3.4574417    284904.75 
   87000    2.4855717 0.0021731846    3.4571382    284904.75 
   88000     2.484122 0.0021567626    3.4429849    284904.75 
   89000    2.4739236 0.0021517366    3.4579798    284904.75 
   90000    2.4747194 0.0022056179     3.457977    284904.75 
   91000    2.4762212 0.0021624215    3.4578818    284904.75 
   92000    2.4782236 0.0021167582    3.4427874    284904.75 
   93000    2.4797286 0.0021594777    3.4426808    284904.75 
   94000    2.4719947 0.0021204146    3.4583507    284904.75 
   95000    2.4818743 0.0021390572    3.4884803    284904.75 
   96000     2.486381 0.0021480449    3.4885959    284904.75 
   97000    2.4772757 0.0021557531    3.4893559    284904.75 
   98000    2.4871043 0.0022345116    3.5065214    284904.75 
   99000    2.4862345 0.0021772086    3.4901591    284904.75 
  100000    2.4855941 0.0021754603    3.5052295    284904.75 
  101000    2.4820425 0.0021396215    3.5061335    284904.75 
  102000    2.4835234 0.0022577486     3.506602    284904.75 
  103000    2.4764895 0.0021685231    3.5066759    284904.75 
  104000    2.4895018 0.0021845735     3.522113    284904.75 
  105000    2.4847609 0.0021298235    3.5085022    284904.75 
  106000    2.4827558 0.0021923881    3.5085012    284904.75 
  107000    2.4841601  0.002173093    3.5092525    284904.75 
  108000    2.4857217 0.0021823316    3.5092549    284904.75 
  109000    2.4710142  0.002135385    3.4936659    284904.75 
  110000    2.4868141  0.002207024    3.5087693    284904.75 
  111000    2.4805327 0.0022753766    3.5096977    284904.75 
  112000    2.4789346 0.0022910147    3.5101513    284904.75 
  113000    2.4768466 0.0021346448    3.5249756    284904.75 
  114000    2.4808975 0.0022059569    3.5099448    284904.75 
  115000     2.480063 0.0021946415    3.5249778    284904.75 
  116000    2.4802419 0.0021934087    3.5247399    284904.75 
  117000     2.480184 0.0021645938    3.5396772    284904.75 
  118000    2.4783548 0.0021997375    3.5246814    284904.75 
  119000    2.4799308 0.0021108069    3.5245841    284904.75 
  120000    2.4756994 0.0021909873    3.5095196    284904.75 
  121000    2.4720473 0.0021216479     3.509489    284904.75 
  122000    2.4743505 0.0021324591    3.5093465    284904.75 
  123000    2.4750235 0.0021909756    3.5248074    284904.75 
  124000    2.4860548 0.0021632733      3.52516    284904.75 
  125000    2.4823449 0.0022156186    3.5219929    284904.75 
  126000    2.4788157 0.0021915595     3.522989    284904.75 
  127000    2.4798706 0.0021506373    3.5098226    284904.75 
  128000    2.4798036 0.0021230401     3.525245    284904.75 
  129000    2.4752818 0.0021484211     3.525506    284904.75 
  130000    2.4787901  0.002157711    3.5397782    284904.75 
  131000    2.4787929 0.0021763798    3.5247216    284904.75 
  132000    2.4750775  0.002134076    3.5095109    284904.75 
  133000    2.4749045  0.002207667     3.524686    284904.75 
  134000    2.4809838  0.002235536    3.5265777    284904.75 
  135000    2.4749496 0.0021925993    3.5139189    284904.75 
  136000    2.4717076 0.0021273346    3.5440652    284904.75 
  137000    2.4770496 0.0022160839    3.5417987    284904.75 
  138000    2.4819445    0.0021475    3.5568127    284904.75 
  139000     2.477656 0.0021816338    3.5519669    284904.75 
  140000    2.4823114  0.002215146    3.5519688    284904.75 
  141000      2.48063   0.00218351    3.5530992    284904.75 
  142000      2.47551 0.0022129286    3.5530984    284904.75 
  143000    2.4722906 0.0022263446    3.5531012    284904.75 
  144000    2.4857456 0.0021858555    3.5684805    284904.75 
  145000    2.4764878 0.0021753616    3.5533477    284904.75 
  146000    2.4764555 0.0021983059    3.5533404    284904.75 
  147000    2.4839356 0.0021862518    3.5673422    284904.75 
  148000    2.4792982 0.0021940859    3.5673414    284904.75 
  149000    2.4827471 0.0021440413    3.5673411    284904.75 
  150000    2.4753898 0.0021874776    3.5673456    284904.75 
  151000    2.4828884 0.0022189792    3.5683599    284904.75 
  152000    2.4826303 0.0021881058    3.5683956    284904.75 
  153000    2.4804212 0.0021964671    3.5688628    284904.75 
  154000    2.4772227 0.0021441483    3.5681549    284904.75 
  155000    2.4750928 0.0021544718    3.5681545    284904.75 
  156000    2.4795693 0.0022090516    3.5681511    284904.75 
  157000    2.4824072 0.0022104763    3.5679851    284904.75 
  158000    2.4840139 0.0021918073    3.5692924    284904.75 
  159000    2.4755023 0.0022060613    3.5692927    284904.75 
  160000    2.4828702  0.002162163    3.5839747    284904.75 
  161000    2.4770836 0.0021866682     3.568991    284904.75 
  162000    2.4811405 0.0022138556    3.5855299    284904.75 
  163000    2.4775663 0.0022027892    3.5854841    284904.75 
  164000    2.4756435 0.0021803095    3.5703933    284904.75 
  165000    2.4757016 0.0021496374    3.5862354    284904.75 
  166000    2.4888188 0.0021939864    3.6022917    284904.75 
  167000    2.4813484 0.0021835593    3.5873108    284904.75 
  168000     2.487134 0.0022185357    3.5867837    284904.75 
  169000    2.4871515 0.0021740506    3.5867845    284904.75 
  170000    2.4817703 0.0022226327    3.5867864    284904.75 
  171000    2.4820089 0.0022070878    3.5867854    284904.75 
  172000    2.4818012 0.0022198484    3.5873934    284904.75 
  173000    2.4842099 0.0021730212    3.5873927    284904.75 
  174000    2.4848633 0.0021786182    3.5873866    284904.75 
  175000    2.4703406 0.0021802558    3.5723603    284904.75 
  176000    2.4789005 0.0021665879     3.587689    284904.75 
  177000    2.4840453 0.0022035748    3.5863349    284904.75 
  178000    2.4867369 0.0021474426    3.5857442    284904.75 
  179000    2.4810012 0.0021729642    3.5866842    284904.75 
  180000    2.4839548 0.0021647241     3.586639    284904.75 
  181000    2.4777691 0.0021357323    3.5866395    284904.75 
  182000     2.486521 0.0022083839    3.5866422    284904.75 
  183000    2.4796592 0.0021610267    3.5866188    284904.75 
  184000    2.4861146 0.0022026223     3.588199    284904.75 
  185000    2.4709481 0.0021371232    3.5882021    284904.75 
  186000     2.474064 0.0021672186    3.5881992    284904.75 
  187000    2.4842533 0.0021967693    3.5885995    284904.75 
  188000    2.4802143 0.0021717661    3.5884146    284904.75 
  189000    2.4801354 0.0022064454    3.5876738    284904.75 
  190000    2.4779255 0.0022183475     3.602755    284904.75 
  191000    2.4864861 0.0021674081    3.6027562    284904.75 
  192000    2.4803825 0.0021946836    3.6028346    284904.75 
  193000    2.4770044 0.0021789919    3.6028363    284904.75 
  194000    2.4726557 0.0021689608    3.5878751    284904.75 
  195000    2.4720127 0.0021627896    3.6030109    284904.75 
  196000    2.4780743 0.0021821985    3.6030132    284904.75 
  197000    2.4777795 0.0022026983    3.6030131    284904.75 
  198000    2.4768537 0.0021791554     3.618082    284904.75 
  199000    2.4872203 0.0021795442    3.6180805    284904.75 
  200000     2.480119 0.0021713337    3.6180807    284904.75 
Loop time of 5.88076 on 1 procs for 200000 steps with 256 atoms

Pair  time (%) = 1.05722 (17.9776)
Neigh time (%) = 3.44207 (58.531)
Comm  time (%) = 0.291573 (4.95809)
Outpt time (%) = 0.00801754 (0.136335)
Other time (%) = 1.08188 (18.397)

Nlocal:    256 ave 256 max 256 min
Histogram: 1 0 0 0 0 0 0 0 0 0
Nghost:    63 ave 63 max 63 min
Histogram: 1 0 0 0 0 0 0 0 0 0
Neighs:    59 ave 59 max 59 min
Histogram: 1 0 0 0 0 0 0 0 0 0

Total # of neighbors = 59
Ave neighs/atom = 0.230469
Neighbor list builds = 17394
Dangerous builds = 3241
#	run             	1000
	unfix 			1
	unfix 			2

#------------ NVE -----------------------------------------------------------------------------

	fix 			1 all nve
	timestep		${dt}
	timestep		0.0020000000000000000416
	thermo_style  		custom step temp press etotal vol
	thermo			1000
	run             	100000
Memory usage per processor = 2.23315 Mbytes
Step Temp Press TotEng Volume 
  200000     2.480119 0.0021713337    3.6180807    284904.75 
  201000    2.4832577 0.0021964947    3.6180829    284904.75 
  202000    2.4794176 0.0021897065    3.6180847    284904.75 
  203000    2.4790287  0.002181735    3.6180842    284904.75 
  204000    2.4757068 0.0022184075    3.6180804    284904.75 
  205000    2.4737646 0.0021545838     3.618083    284904.75 
  206000    2.4844598 0.0022243343    3.6180824    284904.75 
  207000     2.480048 0.0021957794    3.6180843    284904.75 
  208000    2.4757724 0.0021968406    3.6180845    284904.75 
  209000    2.4776586 0.0022263472    3.6180838    284904.75 
  210000    2.4700594 0.0021822912    3.6180885    284904.75 
  211000    2.4755781 0.0021508348    3.6180892    284904.75 
  212000    2.4719412 0.0021791118    3.6180901    284904.75 
  213000    2.4699457 0.0022326275    3.6180919    284904.75 
  214000    2.4682443 0.0021684874      3.61809    284904.75 
  215000    2.4662842 0.0021660101     3.618092    284904.75 
  216000    2.4685191 0.0021542132    3.6180902    284904.75 
  217000    2.4602973  0.002195673    3.6180897    284904.75 
  218000     2.459822 0.0021667028    3.6180898    284904.75 
  219000    2.4647617 0.0021763364    3.6180912    284904.75 
  220000    2.4647258 0.0021712713    3.6180889    284904.75 
  221000    2.4597636  0.002151384    3.6180943    284904.75 
  222000    2.4574107 0.0021812784    3.6180941    284904.75 
  223000     2.453923 0.0021820756    3.6180936    284904.75 
  224000    2.4558489 0.0021769414     3.618093    284904.75 
  225000     2.456158 0.0021944813    3.6180942    284904.75 
  226000    2.4611804 0.0021780063    3.6180944    284904.75 
  227000    2.4566139 0.0021921558    3.6180933    284904.75 
  228000     2.457885  0.002186321    3.6180955    284904.75 
  229000    2.4590799 0.0021834951    3.6180984    284904.75 
  230000    2.4534864 0.0022071545    3.6180987    284904.75 
  231000    2.4579367 0.0021796614    3.6181002    284904.75 
  232000    2.4490647 0.0021789296    3.6180982    284904.75 
  233000    2.4481756 0.0021666825    3.6180973    284904.75 
  234000    2.4490826 0.0021838264    3.6180994    284904.75 
  235000    2.4497017 0.0021726131    3.6180979    284904.75 
  236000    2.4493803 0.0022139274    3.6181013    284904.75 
  237000    2.4505614 0.0021806876    3.6181034    284904.75 
  238000    2.4530751 0.0021757773     3.618104    284904.75 
  239000    2.4488512 0.0021602166    3.6181017    284904.75 
  240000     2.449509 0.0021649382     3.618101    284904.75 
  241000     2.447941 0.0021912017    3.6181009    284904.75 
  242000    2.4470089 0.0021697083    3.6181003    284904.75 
  243000    2.4472928 0.0021609023    3.6181023    284904.75 
  244000    2.4467703 0.0021774261    3.6181045    284904.75 
  245000    2.4466295 0.0021722581    3.6181059    284904.75 
  246000    2.4497853  0.002178775    3.6181093    284904.75 
  247000    2.4480653 0.0021688158    3.6181098    284904.75 
  248000    2.4480846 0.0021790347    3.6181107    284904.75 
  249000    2.4441748 0.0021838579    3.6181095    284904.75 
  250000    2.4452742 0.0021641545    3.6181104    284904.75 
  251000    2.4470652 0.0022145109    3.6181099    284904.75 
  252000    2.4424116 0.0021570562    3.6181109    284904.75 
  253000    2.4444056 0.0021863956    3.6181127    284904.75 
  254000    2.4436084 0.0021612923    3.6181129    284904.75 
  255000    2.4415573 0.0021822466    3.6181155    284904.75 
  256000    2.4434414 0.0021732011    3.6181159    284904.75 
  257000    2.4483737 0.0021989748    3.6181154    284904.75 
  258000    2.4357444 0.0021550012    3.6181179    284904.75 
  259000    2.4432018  0.002181559    3.6181175    284904.75 
  260000    2.4375842 0.0021645044    3.6181182    284904.75 
  261000    2.4366745 0.0021652677    3.6181178    284904.75 
  262000      2.43835 0.0021697342    3.6181196    284904.75 
  263000    2.4400402 0.0021536069    3.6181181    284904.75 
  264000    2.4388412 0.0021907509    3.6181164    284904.75 
  265000    2.4408079 0.0021950551    3.6181149    284904.75 
  266000      2.42847 0.0022299349    3.6181151    284904.75 
  267000    2.4403826 0.0021657428    3.6181142    284904.75 
  268000    2.4339257 0.0021624002    3.6181182    284904.75 
  269000    2.4356168 0.0021910544    3.6181171    284904.75 
  270000    2.4391541  0.002194157     3.618121    284904.75 
  271000    2.4380928 0.0021752112    3.6181209    284904.75 
  272000    2.4342597  0.002170263    3.6181184    284904.75 
  273000    2.4370794 0.0021621835     3.618118    284904.75 
  274000    2.4348167 0.0021590042    3.6181146    284904.75 
  275000    2.4375388 0.0021584672    3.6181191    284904.75 
  276000     2.439665 0.0021731369    3.6181162    284904.75 
  277000    2.4358461 0.0021637217    3.6181175    284904.75 
  278000    2.4383329  0.002165292    3.6181178    284904.75 
  279000    2.4362574 0.0021707705    3.6181195    284904.75 
  280000     2.436436 0.0021727697    3.6181195    284904.75 
  281000    2.4366606 0.0021874129     3.618118    284904.75 
  282000     2.433818 0.0021774937    3.6181205    284904.75 
  283000    2.4413262 0.0021725959    3.6181198    284904.75 
  284000    2.4322736 0.0021675896    3.6181204    284904.75 
  285000    2.4385347  0.002167977    3.6181205    284904.75 
  286000    2.4373107   0.00216807    3.6181219    284904.75 
  287000     2.436996 0.0021685059    3.6181208    284904.75 
  288000      2.43309 0.0021772826    3.6181205    284904.75 
  289000    2.4356591 0.0021707542     3.618118    284904.75 
  290000    2.4347098 0.0021683853    3.6181173    284904.75 
  291000    2.4366054 0.0021773454    3.6181181    284904.75 
  292000    2.4377199 0.0021773548    3.6181196    284904.75 
  293000    2.4355608 0.0021703741    3.6181183    284904.75 
  294000    2.4396286 0.0021710852    3.6181192    284904.75 
  295000    2.4353552 0.0021662209    3.6181212    284904.75 
  296000    2.4380817 0.0021637693    3.6181215    284904.75 
  297000     2.436333 0.0021776719    3.6181246    284904.75 
  298000     2.438455  0.002163933    3.6181263    284904.75 
  299000    2.4404338 0.0021596192    3.6181258    284904.75 
  300000    2.4391535 0.0021702903    3.6181259    284904.75 
Loop time of 2.46976 on 1 procs for 100000 steps with 256 atoms

Pair  time (%) = 0.194476 (7.87429)
Neigh time (%) = 1.69227 (68.5196)
Comm  time (%) = 0.137265 (5.55784)
Outpt time (%) = 0.00409985 (0.166002)
Other time (%) = 0.441648 (17.8822)

Nlocal:    256 ave 256 max 256 min
Histogram: 1 0 0 0 0 0 0 0 0 0
Nghost:    71 ave 71 max 71 min
Histogram: 1 0 0 0 0 0 0 0 0 0
Neighs:    17 ave 17 max 17 min
Histogram: 1 0 0 0 0 0 0 0 0 0

Total # of neighbors = 17
Ave neighs/atom = 0.0664062
Neighbor list builds = 8753
Dangerous builds = 0
#	run             	10000
	unfix 			1

#------------ kappa -------------------------------------------------------------------------
log 	log_kappa_${iseed}.lammps
log 	log_kappa_9.lammps
