
#------------ NVE rescale ---------------------------------------------------------------------

	velocity 		all create ${T_run} ${seed} rot yes dist gaussian
	velocity 		all create 2.6455576526946114058 ${seed} rot yes dist gaussian
	velocity 		all create 2.6455576526946114058 44444 rot yes dist gaussian

	fix 			1 all nve
	fix 			2 all temp/rescale 1 ${T_run} ${T_run} 0.01 1.0
	fix 			2 all temp/rescale 1 2.6455576526946114058 ${T_run} 0.01 1.0
	fix 			2 all temp/rescale 1 2.6455576526946114058 2.6455576526946114058 0.01 1.0
	timestep		${dt}
	timestep		0.0020000000000000000416
	thermo_style  		custom step temp press etotal vol
	thermo			1000
	run             	200000
Memory usage per processor = 2.13486 Mbytes
Step Temp Press TotEng Volume 
       0    2.6455577 0.0024007508   -1.5687558    279726.26 
    1000    2.6397098 0.0020402592    3.0534756    279726.26 
    2000    2.6506362  0.002092344    3.1764027    279726.26 
    3000     2.651618 0.0020886831    3.1907191    279726.26 
    4000     2.646949 0.0021378022    3.2370429    279726.26 
    5000    2.6404347 0.0023049297    3.2061465    279726.26 
    6000    2.6441763 0.0024543086    3.2362458    279726.26 
    7000    2.6448754 0.0022562186    3.2850678    279726.26 
    8000    2.6446079 0.0022128032    3.2866113    279726.26 
    9000    2.6553935 0.0023405922    3.3165551    279726.26 
   10000    2.6427291 0.0023044006    3.3015574    279726.26 
   11000    2.6467741 0.0023254135    3.3009664    279726.26 
   12000    2.6371467 0.0022557273    3.3467796    279726.26 
   13000    2.6473699 0.0023384447    3.3328164    279726.26 
   14000    2.6403249 0.0023778376    3.3329497    279726.26 
   15000     2.642178 0.0022707755    3.3484262    279726.26 
   16000    2.6363838 0.0023224371    3.3324708    279726.26 
   17000    2.6404297 0.0022751019    3.3312014    279726.26 
   18000     2.639347 0.0023775139    3.3613305    279726.26 
   19000    2.6411117 0.0023152829    3.3614094    279726.26 
   20000    2.6491542 0.0021854676    3.3611619    279726.26 
   21000     2.640708 0.0022570665    3.3614666    279726.26 
   22000    2.6424334 0.0022706141    3.3759735    279726.26 
   23000    2.6487334 0.0023641292    3.3761902    279726.26 
   24000    2.6491234 0.0022599041    3.3933719    279726.26 
   25000    2.6474772 0.0023498864    3.3789065    279726.26 
   26000    2.6380907  0.002306999    3.3941589    279726.26 
   27000    2.6436876 0.0025645277    3.4284333    279726.26 
   28000    2.6398673 0.0022941817    3.4102387    279726.26 
   29000    2.6409401 0.0022817053    3.4250761    279726.26 
   30000    2.6407379 0.0022894673    3.4257541    279726.26 
   31000    2.6504006 0.0024922069    3.4257704    279726.26 
   32000    2.6494611 0.0023854883    3.4414742    279726.26 
   33000    2.6499488 0.0022751591    3.4425063    279726.26 
   34000    2.6452031 0.0023077228    3.4611476    279726.26 
   35000    2.6470368 0.0023282311    3.4615087    279726.26 
   36000    2.6442789 0.0023607392    3.4620626    279726.26 
   37000     2.641027 0.0023922955    3.4771424    279726.26 
   38000    2.6371365 0.0023279645    3.4621949    279726.26 
   39000    2.6466723 0.0022370037    3.4925564    279726.26 
   40000    2.6440058 0.0023627777    3.4621958    279726.26 
   41000    2.6510317 0.0023408401    3.5094885    279726.26 
   42000    2.6399437 0.0022816068    3.5095621    279726.26 
   43000    2.6448037 0.0022833638    3.5107782    279726.26 
   44000    2.6438452 0.0023612159    3.5261815    279726.26 
   45000    2.6472765  0.002364587    3.5420263    279726.26 
   46000    2.6457092 0.0023011334    3.5434812    279726.26 
   47000    2.6501282 0.0022597081    3.5425147    279726.26 
   48000    2.6494928 0.0022773126    3.5428986    279726.26 
   49000    2.6472225 0.0022665986    3.5434003    279726.26 
   50000    2.6452054 0.0023407538    3.5432741    279726.26 
   51000    2.6434313 0.0024315357    3.5346661    279726.26 
   52000    2.6387309 0.0022600719    3.5499265    279726.26 
   53000    2.6444164 0.0023688227    3.5500595    279726.26 
   54000    2.6509366 0.0022714793    3.5652349    279726.26 
   55000    2.6515629 0.0023274037    3.5511707    279726.26 
   56000    2.6419246 0.0023498386    3.5522562    279726.26 
   57000     2.643304 0.0023739999    3.5632192    279726.26 
   58000    2.6410991  0.002392795    3.5639202    279726.26 
   59000    2.6492342   0.00232681    3.5782926    279726.26 
   60000    2.6404324 0.0023547738     3.578217    279726.26 
   61000    2.6477513 0.0023367216    3.5936594    279726.26 
   62000     2.649828 0.0022861101    3.5949957    279726.26 
   63000    2.6454853 0.0023975974    3.6109082    279726.26 
   64000    2.6395192 0.0023002472    3.5958933    279726.26 
   65000    2.6473842 0.0022727086    3.6009155    279726.26 
   66000    2.6454306 0.0023656056    3.6005817    279726.26 
   67000    2.6464672 0.0023020779    3.6152537    279726.26 
   68000    2.6494168 0.0024263937     3.621313    279726.26 
   69000    2.6429343 0.0023781202    3.6064172    279726.26 
   70000    2.6528844 0.0022894884    3.6311902    279726.26 
   71000    2.6499636 0.0024134529    3.6321681    279726.26 
   72000    2.6468494 0.0024272267    3.6321685    279726.26 
   73000    2.6538867 0.0023019752     3.632372    279726.26 
   74000    2.6539777 0.0023601658    3.6325368    279726.26 
   75000    2.6430545 0.0024185139    3.6320416    279726.26 
   76000    2.6435252  0.002360187    3.6185818    279726.26 
   77000    2.6362082 0.0024394957    3.6482081    279726.26 
   78000    2.6399311 0.0023887635    3.6654404    279726.26 
   79000    2.6535459 0.0023075835     3.666562    279726.26 
   80000    2.6501031 0.0023805477    3.6520177    279726.26 
   81000    2.6468092 0.0023520694     3.655995    279726.26 
   82000     2.650304 0.0023850047    3.6705321    279726.26 
   83000     2.644207 0.0023656972    3.6703019    279726.26 
   84000    2.6470979 0.0023800804    3.6553213    279726.26 
   85000    2.6539619 0.0023125308    3.6708577    279726.26 
   86000    2.6524981 0.0023652644    3.6707867    279726.26 
   87000    2.6459391 0.0023615462    3.6707457    279726.26 
   88000    2.6459586 0.0023645096    3.6860081    279726.26 
   89000    2.6485329 0.0023914506    3.6402728    279726.26 
   90000    2.6533723 0.0023382197    3.6603729    279726.26 
   91000    2.6517928 0.0023900487    3.6757339    279726.26 
   92000    2.6503246 0.0023972504    3.6910501    279726.26 
   93000    2.6492983 0.0023155396    3.6775411    279726.26 
   94000    2.6486221 0.0023791618     3.677539    279726.26 
   95000    2.6441756 0.0023197593     3.677517    279726.26 
   96000    2.6411812 0.0023868338     3.677437    279726.26 
   97000     2.651284 0.0023517482    3.6882208    279726.26 
   98000     2.644231 0.0023906732    3.7043138    279726.26 
   99000    2.6429955 0.0023219499    3.6895289    279726.26 
  100000    2.6368515 0.0024228633    3.6895345    279726.26 
  101000    2.6377288 0.0023160372    3.6895292    279726.26 
  102000    2.6490027  0.002392739    3.7044459    279726.26 
  103000    2.6518424 0.0024207345    3.6893858    279726.26 
  104000    2.6436018 0.0024021236    3.6893881    279726.26 
  105000    2.6529086 0.0023479975    3.7043821    279726.26 
  106000    2.6398312 0.0023553574    3.6894771    279726.26 
  107000    2.6467877 0.0023344989    3.7048327    279726.26 
  108000    2.6430252 0.0023715638    3.7074242    279726.26 
  109000    2.6423533 0.0023290049    3.7072744    279726.26 
  110000    2.6542776 0.0024475518    3.7223254    279726.26 
  111000    2.6466788 0.0023326838    3.7077566    279726.26 
  112000    2.6481199 0.0024565668    3.7084271    279726.26 
  113000    2.6395236 0.0022732011    3.7088106    279726.26 
  114000    2.6464869 0.0024227363    3.7086145    279726.26 
  115000    2.6540755  0.002468463    3.7089056    279726.26 
  116000    2.6510573 0.0023812365    3.7134989    279726.26 
  117000    2.6401463 0.0024182569    3.6985173    279726.26 
  118000    2.6555103 0.0023531028    3.7287293    279726.26 
  119000    2.6493965 0.0023590659    3.7139087    279726.26 
  120000    2.6426194 0.0023532148    3.7140464    279726.26 
  121000    2.6489478 0.0024631197    3.7140484    279726.26 
  122000    2.6481937 0.0024283043    3.7305884    279726.26 
  123000    2.6501157 0.0023806479    3.7154835    279726.26 
  124000    2.6424869 0.0023997268    3.7154821    279726.26 
  125000     2.644704 0.0024016592    3.7153744    279726.26 
  126000    2.6467339 0.0023987959     3.715132    279726.26 
  127000    2.6488891  0.002447919    3.7151298    279726.26 
  128000    2.6473207 0.0024131054    3.7150822    279726.26 
  129000    2.6514752 0.0023372246    3.7150792    279726.26 
  130000     2.643459 0.0023895981    3.7147589    279726.26 
  131000    2.6514496 0.0023200988    3.7147585    279726.26 
  132000    2.6436286 0.0025457648    3.7339746    279726.26 
  133000    2.6374464 0.0023409763    3.6976891    279726.26 
  134000    2.6410193 0.0024410521    3.7127976    279726.26 
  135000    2.6515338 0.0024182834    3.7280877    279726.26 
  136000    2.6461666 0.0023651561    3.7285302    279726.26 
  137000    2.6495117 0.0023323794    3.7484869    279726.26 
  138000    2.6387292 0.0024485837    3.7332952    279726.26 
  139000    2.6460304 0.0023540608    3.7529743    279726.26 
  140000     2.644257 0.0023642574     3.770171    279726.26 
  141000    2.6428293  0.002349027    3.7558267    279726.26 
  142000    2.6529278 0.0024272372    3.7691985    279726.26 
  143000    2.6455204 0.0024201362    3.7546646    279726.26 
  144000    2.6527656 0.0023902452     3.769682    279726.26 
  145000    2.6453007 0.0023564457    3.7704637    279726.26 
  146000     2.645516  0.002366875    3.7854155    279726.26 
  147000     2.645635 0.0023858355    3.7697799    279726.26 
  148000    2.6447329 0.0023935955    3.7714659    279726.26 
  149000    2.6495631 0.0024110149    3.7868669    279726.26 
  150000    2.6404198 0.0023775719    3.7739144    279726.26 
  151000     2.650671  0.002397179    3.7739117    279726.26 
  152000    2.6427092 0.0023008619    3.7753602    279726.26 
  153000      2.64614 0.0023555395    3.7752481    279726.26 
  154000    2.6413074 0.0024163459    3.7752474    279726.26 
  155000    2.6401304 0.0023902339    3.7751956    279726.26 
  156000    2.6362673 0.0024876385     3.790532    279726.26 
  157000    2.6446154 0.0024118453    3.7904474    279726.26 
  158000    2.6454739 0.0023447029    3.8055262    279726.26 
  159000    2.6516489 0.0023738348    3.7905752    279726.26 
  160000    2.6488223 0.0024074956    3.8063465    279726.26 
  161000    2.6434508 0.0023455742    3.7913837    279726.26 
  162000    2.6492508 0.0023590786    3.8061999    279726.26 
  163000      2.64023 0.0023919572    3.7908328    279726.26 
  164000    2.6476238  0.002415826    3.8374019    279726.26 
  165000    2.6455305 0.0023755255    3.8258025    279726.26 
  166000    2.6499352  0.002329522    3.8407788    279726.26 
  167000    2.6479453 0.0023308371    3.8411193    279726.26 
  168000     2.642768    0.0023671    3.8411198    279726.26 
  169000    2.6479986 0.0024743866    3.8409964    279726.26 
  170000    2.6425354 0.0023404046    3.8410928    279726.26 
  171000    2.6450126 0.0023966081    3.8429666    279726.26 
  172000    2.6428947  0.002422869    3.8302673    279726.26 
  173000    2.6495491 0.0023483134    3.8451218    279726.26 
  174000    2.6419024 0.0024141344    3.8606144    279726.26 
  175000    2.6459193 0.0024088749    3.8606144    279726.26 
  176000    2.6496904 0.0024026698    3.8607564    279726.26 
  177000    2.6481919 0.0023807797    3.8607573    279726.26 
  178000    2.6516634 0.0024331306    3.8594497    279726.26 
  179000    2.6484398  0.002404248    3.8609659    279726.26 
  180000    2.6471306  0.002349086    3.8609667    279726.26 
  181000    2.6447543 0.0023989873    3.8609311    279726.26 
  182000    2.6426904 0.0023659092    3.8609359    279726.26 
  183000    2.6381292 0.0023445474    3.8617306    279726.26 
  184000    2.6458239 0.0023738225     3.876702    279726.26 
  185000    2.6477488 0.0023992561    3.8767012    279726.26 
  186000    2.6438081 0.0023489441     3.863017    279726.26 
  187000     2.640147 0.0023901545    3.8630176    279726.26 
  188000    2.6424586 0.0024067663    3.8630067    279726.26 
  189000    2.6486919 0.0024055185    3.8631788    279726.26 
  190000    2.6414102 0.0023621785    3.8633108    279726.26 
  191000     2.648791 0.0023761064    3.8811904    279726.26 
  192000    2.6493414 0.0023978015     3.866249    279726.26 
  193000    2.6475192 0.0023898414    3.9147714    279726.26 
  194000    2.6441566 0.0023933795    3.9149609    279726.26 
  195000    2.6410127 0.0023944327    3.9149622    279726.26 
  196000     2.653037 0.0024127655     3.930052    279726.26 
  197000    2.6505772 0.0024260237    3.9300527    279726.26 
  198000    2.6519716 0.0023940797    3.9300535    279726.26 
  199000    2.6454249 0.0023848354    3.9146063    279726.26 
  200000    2.6507958 0.0024155945    3.9300349    279726.26 
Loop time of 6.97088 on 1 procs for 200000 steps with 256 atoms

Pair  time (%) = 1.2813 (18.3807)
Neigh time (%) = 3.9862 (57.1836)
Comm  time (%) = 0.391011 (5.6092)
Outpt time (%) = 0.0109479 (0.157052)
Other time (%) = 1.30142 (18.6694)

Nlocal:    256 ave 256 max 256 min
Histogram: 1 0 0 0 0 0 0 0 0 0
Nghost:    69 ave 69 max 69 min
Histogram: 1 0 0 0 0 0 0 0 0 0
Neighs:    21 ave 21 max 21 min
Histogram: 1 0 0 0 0 0 0 0 0 0

Total # of neighbors = 21
Ave neighs/atom = 0.0820312
Neighbor list builds = 19249
Dangerous builds = 13105
#	run             	1000
	unfix 			1
	unfix 			2

#------------ NVE -----------------------------------------------------------------------------

	fix 			1 all nve
	timestep		${dt}
	timestep		0.0020000000000000000416
	thermo_style  		custom step temp press etotal vol
	thermo			1000
	run             	100000
Memory usage per processor = 2.13486 Mbytes
Step Temp Press TotEng Volume 
  200000    2.6507958 0.0024155945    3.9300349    279726.26 
  201000     2.648253 0.0023987089    3.9300388    279726.26 
  202000    2.6486314  0.002392053    3.9300409    279726.26 
  203000    2.6488054 0.0024009408    3.9300403    279726.26 
  204000    2.6478126 0.0024061579    3.9300416    279726.26 
  205000    2.6519385 0.0023999948    3.9300416    279726.26 
  206000    2.6479523 0.0024090738    3.9300422    279726.26 
  207000     2.649856 0.0023873396    3.9300406    279726.26 
  208000    2.6463924 0.0023889751    3.9300396    279726.26 
  209000    2.6504409 0.0024148517    3.9300384    279726.26 
  210000    2.6421974 0.0024964397    3.9300326    279726.26 
  211000    2.6465254 0.0024392673    3.9300439    279726.26 
  212000    2.6516515 0.0024169802    3.9300431    279726.26 
  213000    2.6520427 0.0023981436    3.9300453    279726.26 
  214000     2.650862 0.0024150305    3.9300429    279726.26 
  215000    2.6463023 0.0023981404    3.9300411    279726.26 
  216000    2.6486023  0.002407427    3.9300401    279726.26 
  217000    2.6479599 0.0024202091    3.9300407    279726.26 
  218000    2.6508936 0.0023896535    3.9300409    279726.26 
  219000    2.6532701 0.0024138658    3.9300396    279726.26 
  220000    2.6512185 0.0023996652     3.930039    279726.26 
  221000      2.64716  0.002415004    3.9300399    279726.26 
  222000    2.6468055 0.0024029173    3.9300423    279726.26 
  223000    2.6502693 0.0024247315    3.9300402    279726.26 
  224000    2.6458443  0.002389728    3.9300402    279726.26 
  225000    2.6523098  0.002384906      3.93004    279726.26 
  226000    2.6519305 0.0024026265    3.9300401    279726.26 
  227000    2.6482663  0.002409072    3.9300398    279726.26 
  228000    2.6486518 0.0024083878    3.9300416    279726.26 
  229000    2.6492519 0.0023883271     3.930038    279726.26 
  230000    2.6496195 0.0023927477    3.9300378    279726.26 
  231000    2.6483354 0.0024246498    3.9300358    279726.26 
  232000    2.6489234 0.0023981757    3.9300368    279726.26 
  233000    2.6529161 0.0023976746    3.9300396    279726.26 
  234000    2.6480104 0.0023919279      3.93004    279726.26 
  235000    2.6515612 0.0023834821    3.9300387    279726.26 
  236000    2.6478836 0.0024011513    3.9300364    279726.26 
  237000     2.644469 0.0023969629     3.930036    279726.26 
  238000    2.6437681 0.0023944039     3.930035    279726.26 
  239000    2.6462634 0.0024046852    3.9300329    279726.26 
  240000    2.6468739 0.0024228853    3.9300372    279726.26 
  241000    2.6389086 0.0025045445    3.9300418    279726.26 
  242000    2.6445712 0.0023940428    3.9300331    279726.26 
  243000    2.6411614 0.0023940775    3.9300299    279726.26 
  244000    2.6432755 0.0023999228    3.9300286    279726.26 
  245000    2.6449685 0.0024052197    3.9300278    279726.26 
  246000    2.6424399 0.0023909273    3.9300286    279726.26 
  247000    2.6401823 0.0023992984    3.9300321    279726.26 
  248000    2.6456356 0.0023960776    3.9300331    279726.26 
  249000    2.6422934  0.002427223    3.9300369    279726.26 
  250000    2.6422422 0.0024096916    3.9300367    279726.26 
  251000    2.6439555 0.0023938458    3.9300366    279726.26 
  252000    2.6417299 0.0023947189    3.9300369    279726.26 
  253000    2.6403602 0.0024159653     3.930038    279726.26 
  254000    2.6440743 0.0024023065    3.9300388    279726.26 
  255000     2.645042 0.0024020715    3.9300385    279726.26 
  256000    2.6418861 0.0023893896    3.9300387    279726.26 
  257000    2.6461658 0.0024175418    3.9300369    279726.26 
  258000    2.6446462 0.0023969181    3.9300388    279726.26 
  259000    2.6406323 0.0024232125      3.93004    279726.26 
  260000    2.6464522 0.0023970963    3.9300397    279726.26 
  261000    2.6453548 0.0024023661    3.9300397    279726.26 
  262000    2.6418795 0.0024004766    3.9300403    279726.26 
  263000     2.640391 0.0023980768    3.9300403    279726.26 
  264000    2.6455559 0.0024034075    3.9300385    279726.26 
  265000    2.6401064  0.002392754     3.930041    279726.26 
  266000    2.6421384 0.0023984415    3.9300437    279726.26 
  267000    2.6396876 0.0023918999    3.9300443    279726.26 
  268000    2.6394328 0.0023973992    3.9300451    279726.26 
  269000    2.6385566 0.0024006145    3.9300464    279726.26 
  270000    2.6384668 0.0023979902    3.9300476    279726.26 
  271000    2.6408547 0.0023972962    3.9300479    279726.26 
  272000    2.6389996 0.0024052327     3.930047    279726.26 
  273000     2.639542 0.0023971867     3.930048    279726.26 
  274000    2.6417318 0.0023938405    3.9300438    279726.26 
  275000    2.6414672  0.002394114    3.9300465    279726.26 
  276000    2.6436643 0.0024279203    3.9300454    279726.26 
  277000    2.6395516 0.0023984788    3.9300486    279726.26 
  278000    2.6395509  0.002400039    3.9300492    279726.26 
  279000    2.6398972 0.0023914298    3.9300516    279726.26 
  280000    2.6426042 0.0024004845    3.9300483    279726.26 
  281000    2.6381754 0.0024061962     3.930047    279726.26 
  282000    2.6389871 0.0023945971    3.9300495    279726.26 
  283000     2.640723 0.0024043426    3.9300491    279726.26 
  284000    2.6370468 0.0024361506    3.9300471    279726.26 
  285000    2.6357717 0.0023956274    3.9300449    279726.26 
  286000    2.6362745 0.0024023519    3.9300475    279726.26 
  287000    2.6336552 0.0024083667    3.9300487    279726.26 
  288000    2.6356912 0.0023892822    3.9300479    279726.26 
  289000    2.6363366 0.0024073178    3.9300486    279726.26 
  290000    2.6392729 0.0023929472    3.9300471    279726.26 
  291000     2.633056 0.0024102959    3.9300491    279726.26 
  292000    2.6387554 0.0023869489    3.9300493    279726.26 
  293000    2.6356077 0.0023954847    3.9300517    279726.26 
  294000    2.6349088 0.0024180011    3.9300525    279726.26 
  295000    2.6335333 0.0024104788    3.9300518    279726.26 
  296000     2.633889 0.0024435736    3.9300587    279726.26 
  297000    2.6367913 0.0023885572    3.9300563    279726.26 
  298000    2.6361652 0.0023893088    3.9300559    279726.26 
  299000    2.6335947 0.0024085697    3.9300566    279726.26 
  300000    2.6330513 0.0023946362    3.9300569    279726.26 
Loop time of 2.77928 on 1 procs for 100000 steps with 256 atoms

Pair  time (%) = 0.218828 (7.87356)
Neigh time (%) = 1.78577 (64.2529)
Comm  time (%) = 0.188945 (6.79834)
Outpt time (%) = 0.00541592 (0.194868)
Other time (%) = 0.580321 (20.8803)

Nlocal:    256 ave 256 max 256 min
Histogram: 1 0 0 0 0 0 0 0 0 0
Nghost:    69 ave 69 max 69 min
Histogram: 1 0 0 0 0 0 0 0 0 0
Neighs:    8 ave 8 max 8 min
Histogram: 1 0 0 0 0 0 0 0 0 0

Total # of neighbors = 8
Ave neighs/atom = 0.03125
Neighbor list builds = 8371
Dangerous builds = 0
#	run             	10000
	unfix 			1

#------------ kappa -------------------------------------------------------------------------
log 	log_kappa_${iseed}.lammps
log 	log_kappa_4.lammps
