
#------------ NVE rescale ---------------------------------------------------------------------

	velocity 		all create ${T_run} ${seed} rot yes dist gaussian
	velocity 		all create 2.6455576526946114058 ${seed} rot yes dist gaussian
	velocity 		all create 2.6455576526946114058 55555 rot yes dist gaussian

	fix 			1 all nve
	fix 			2 all temp/rescale 1 ${T_run} ${T_run} 0.01 1.0
	fix 			2 all temp/rescale 1 2.6455576526946114058 ${T_run} 0.01 1.0
	fix 			2 all temp/rescale 1 2.6455576526946114058 2.6455576526946114058 0.01 1.0
	timestep		${dt}
	timestep		0.0020000000000000000416
	thermo_style  		custom step temp press etotal vol
	thermo			1000
	run             	200000
Memory usage per processor = 2.13486 Mbytes
Step Temp Press TotEng Volume 
       0    2.6455577 0.0024007508   -1.5687558    279726.26 
    1000    2.6485423 0.0018857756     2.927146    279726.26 
    2000    2.6401828 0.0021124596    3.0204885    279726.26 
    3000    2.6520668 0.0021038423    3.1127576    279726.26 
    4000    2.6434142 0.0021273893    3.1305999    279726.26 
    5000    2.6447795 0.0022568213    3.1314358    279726.26 
    6000    2.6423981 0.0021379115    3.1594861    279726.26 
    7000    2.6464549 0.0022400176     3.158784    279726.26 
    8000    2.6477753 0.0021583425      3.20365    279726.26 
    9000    2.6534756 0.0021433973    3.1736671    279726.26 
   10000    2.6419472 0.0022799597    3.2182715    279726.26 
   11000    2.6378689 0.0023898108    3.2959381    279726.26 
   12000     2.647851 0.0023347676    3.3252866    279726.26 
   13000    2.6427237 0.0022576293    3.3090164    279726.26 
   14000    2.6449885 0.0022469747    3.3077145    279726.26 
   15000    2.6428119 0.0024208133    3.3588252    279726.26 
   16000    2.6522692  0.002104301    3.3571661    279726.26 
   17000    2.6400247 0.0022270725    3.3585561    279726.26 
   18000    2.6421963 0.0023184204    3.3779101    279726.26 
   19000     2.645244 0.0022346449    3.3795249    279726.26 
   20000     2.652706 0.0022906929    3.3640839    279726.26 
   21000     2.652525 0.0023342771    3.4793389    279726.26 
   22000    2.6498077 0.0023678953    3.4944067    279726.26 
   23000    2.6417337 0.0022507193    3.4639611    279726.26 
   24000    2.6383142 0.0023116133    3.4948844    279726.26 
   25000    2.6479858 0.0023699095    3.4961444    279726.26 
   26000    2.6378835 0.0021628372    3.5116291    279726.26 
   27000    2.6461977 0.0022391354    3.5100127    279726.26 
   28000    2.6511783 0.0023325497     3.542329    279726.26 
   29000    2.6376092 0.0022229962    3.5121876    279726.26 
   30000    2.6425726 0.0022859237    3.5122931    279726.26 
   31000     2.647782 0.0023917451    3.5131516    279726.26 
   32000    2.6510551 0.0024676742    3.4986866    279726.26 
   33000    2.6499882 0.0022729116    3.5008316    279726.26 
   34000    2.6398902  0.002418063    3.4858485    279726.26 
   35000     2.641175 0.0022820922    3.5537755    279726.26 
   36000     2.652054  0.002367622    3.5687723    279726.26 
   37000    2.6418926 0.0023248668    3.5845991    279726.26 
   38000    2.6501515 0.0023882606    3.5847598    279726.26 
   39000    2.6447454  0.002417367    3.5547752    279726.26 
   40000    2.6511109  0.002257078     3.585488    279726.26 
   41000    2.6420556 0.0023558177    3.5693703    279726.26 
   42000    2.6413116 0.0021776913    3.5705319    279726.26 
   43000    2.6483997 0.0023446471    3.5863018    279726.26 
   44000    2.6429857 0.0023547906    3.5860131    279726.26 
   45000    2.6467291 0.0023669127    3.6015771    279726.26 
   46000    2.6448632 0.0023925947    3.6185332    279726.26 
   47000    2.6532122 0.0023204746    3.6186032    279726.26 
   48000    2.6434267 0.0023950048    3.6033743    279726.26 
   49000    2.6428924 0.0023035057    3.6185943    279726.26 
   50000    2.6511469 0.0024309402    3.6366207    279726.26 
   51000    2.6519225 0.0023551125    3.6233458    279726.26 
   52000    2.6484741 0.0022816109    3.6080234    279726.26 
   53000    2.6443263 0.0023312638     3.642692    279726.26 
   54000    2.6501653 0.0023910525    3.6576827    279726.26 
   55000    2.6481559 0.0023505579    3.6576839    279726.26 
   56000    2.6545227 0.0023631272    3.6733506    279726.26 
   57000    2.6429157 0.0023976703    3.6733487    279726.26 
   58000    2.6454324 0.0023910266     3.673348    279726.26 
   59000    2.6542089 0.0023320456    3.6887747    279726.26 
   60000    2.6466481 0.0023630546    3.6898893    279726.26 
   61000    2.6436128 0.0022923168    3.6769085    279726.26 
   62000    2.6470502 0.0023529322    3.7069823    279726.26 
   63000    2.6474313 0.0023420516    3.6919457    279726.26 
   64000     2.636173  0.002353804    3.6769939    279726.26 
   65000    2.6384326 0.0022619981    3.6927668    279726.26 
   66000    2.6430232 0.0023478013    3.7081362    279726.26 
   67000    2.6487289  0.002348014     3.708169    279726.26 
   68000     2.649346 0.0024040725    3.7235331    279726.26 
   69000    2.6458561 0.0023348684    3.7385145    279726.26 
   70000    2.6456396 0.0024425611     3.723132    279726.26 
   71000    2.6449597 0.0023675091    3.7383895    279726.26 
   72000    2.6509926 0.0023863338    3.7380648    279726.26 
   73000    2.6529868 0.0024150254    3.7539289    279726.26 
   74000    2.6432391 0.0023285927    3.7539321    279726.26 
   75000    2.6431965 0.0024623835    3.7389033    279726.26 
   76000    2.6482919 0.0023978564    3.7549693    279726.26 
   77000    2.6443071 0.0023345768    3.7399647    279726.26 
   78000    2.6409751 0.0022801839    3.7399768    279726.26 
   79000    2.6406998 0.0022735546    3.7399763    279726.26 
   80000    2.6413313 0.0023737761    3.7560507    279726.26 
   81000    2.6472916 0.0023321074    3.7560499    279726.26 
   82000    2.6503961 0.0023629956    3.7405438    279726.26 
   83000    2.6430477  0.002360468    3.7405448    279726.26 
   84000    2.6454957 0.0023782913    3.7433964    279726.26 
   85000    2.6475417 0.0023709899    3.7433507    279726.26 
   86000    2.6392298 0.0023601217    3.7435094    279726.26 
   87000    2.6397471 0.0023712949    3.7435098    279726.26 
   88000    2.6531934  0.002356773    3.7583588    279726.26 
   89000    2.6439003 0.0023634996    3.7589504    279726.26 
   90000    2.6515267 0.0023805791    3.7587374    279726.26 
   91000    2.6426758 0.0023734752    3.7587357    279726.26 
   92000    2.6461936  0.002366466    3.7587363    279726.26 
   93000    2.6473849 0.0023376362    3.7650291    279726.26 
   94000    2.6477261 0.0023688238    3.7500145    279726.26 
   95000    2.6448492 0.0023541074    3.7500357    279726.26 
   96000    2.6449884 0.0023948674    3.7500338    279726.26 
   97000     2.636177 0.0023327198    3.7652005    279726.26 
   98000    2.6412218 0.0023797201    3.7839036    279726.26 
   99000    2.6414626 0.0023769203    3.7831446    279726.26 
  100000    2.6418956 0.0024032986    3.7831833    279726.26 
  101000    2.6358501 0.0024002171    3.7832337    279726.26 
  102000    2.6392799  0.002345936     3.783097    279726.26 
  103000    2.6492336 0.0023803841    3.7989607    279726.26 
  104000    2.6411684 0.0023690369    3.8139775    279726.26 
  105000    2.6427328 0.0024263499    3.8145539    279726.26 
  106000    2.6447733 0.0023858596    3.8148936    279726.26 
  107000    2.6498948 0.0023817198     3.799913    279726.26 
  108000    2.6374775 0.0023987385    3.8021827    279726.26 
  109000    2.6497726  0.002377579    3.8172562    279726.26 
  110000    2.6427613 0.0023495976    3.8019989    279726.26 
  111000    2.6413822 0.0023790838    3.8020812    279726.26 
  112000    2.6422264 0.0024433544    3.8023981    279726.26 
  113000    2.6414875   0.00233631    3.8026225    279726.26 
  114000     2.650751 0.0023509642    3.8176422    279726.26 
  115000    2.6468042 0.0024019072    3.8173066    279726.26 
  116000    2.6404261 0.0023773486     3.803666    279726.26 
  117000    2.6467638 0.0023362334     3.818812    279726.26 
  118000    2.6457851 0.0023884036    3.8033281    279726.26 
  119000    2.6437613 0.0024128645    3.8182966    279726.26 
  120000    2.6445608  0.002368301     3.818296    279726.26 
  121000    2.6432439 0.0023785176    3.8182933    279726.26 
  122000    2.6425235 0.0023327536    3.8182921    279726.26 
  123000    2.6500768 0.0023906531    3.8339354    279726.26 
  124000    2.6487268 0.0023798612    3.8205684    279726.26 
  125000     2.650049 0.0024031429    3.8204892    279726.26 
  126000    2.6479659 0.0023443711    3.8511422    279726.26 
  127000    2.6427492 0.0024097647     3.852009    279726.26 
  128000     2.636062  0.002406627    3.8520097    279726.26 
  129000    2.6468905 0.0023740509    3.8670479    279726.26 
  130000    2.6493513  0.002365649    3.8670499    279726.26 
  131000    2.6412927 0.0023686101    3.8526967    279726.26 
  132000     2.643742 0.0023546198    3.8677124    279726.26 
  133000    2.6495965 0.0024267825    3.8837572    279726.26 
  134000    2.6492919 0.0023901399    3.8837557    279726.26 
  135000    2.6482939 0.0023823981    3.8837567    279726.26 
  136000     2.639698 0.0023752778    3.8708966    279726.26 
  137000    2.6474953 0.0024225765    3.8861953    279726.26 
  138000    2.6455582 0.0023867406    3.8717885    279726.26 
  139000    2.6457569 0.0023594418    3.8894884    279726.26 
  140000    2.6425933 0.0023661101    3.8894884    279726.26 
  141000    2.6459165 0.0023753642    3.8894844    279726.26 
  142000     2.645775 0.0023684859    3.8894855    279726.26 
  143000     2.647891 0.0024657782    3.8901871    279726.26 
  144000     2.641246  0.002435038    3.8912794    279726.26 
  145000    2.6508856 0.0023987914    3.9065113    279726.26 
  146000    2.6501788 0.0024436696    3.9065115    279726.26 
  147000    2.6531409 0.0024265205    3.9065099    279726.26 
  148000    2.6402258 0.0024053385    3.8909151    279726.26 
  149000    2.6467848 0.0023904209    3.9059018    279726.26 
  150000    2.6486898 0.0024051862    3.9064839    279726.26 
  151000    2.6457679 0.0024150851    3.9061942    279726.26 
  152000    2.6470022 0.0024051462    3.9061945    279726.26 
  153000    2.6432553 0.0024897653    3.9222824    279726.26 
  154000    2.6479476 0.0023812435    3.9069693    279726.26 
  155000    2.6454141 0.0023883662    3.9069697    279726.26 
  156000    2.6468271 0.0024332153    3.9067616    279726.26 
  157000    2.6501337 0.0024080307    3.9067605    279726.26 
  158000    2.6494287 0.0024232134    3.9101196    279726.26 
  159000    2.6494096 0.0023956379    3.9107288    279726.26 
  160000    2.6455675 0.0023842315    3.9115845    279726.26 
  161000    2.6530583 0.0024291602    3.9115847    279726.26 
  162000    2.6477595 0.0024152448    3.9275208    279726.26 
  163000     2.647559 0.0023938612    3.9275292    279726.26 
  164000    2.6436273 0.0024014458    3.9275286    279726.26 
  165000    2.6481739 0.0024019418    3.9125629    279726.26 
  166000    2.6386602 0.0023801645    3.9158043    279726.26 
  167000    2.6504519 0.0023967217    3.9314666    279726.26 
  168000    2.6469666 0.0024044733    3.9314659    279726.26 
  169000    2.6475336 0.0023922846    3.9299231    279726.26 
  170000    2.6498222 0.0024456032    3.9317376    279726.26 
  171000    2.6485677 0.0024207804    3.9325381    279726.26 
  172000    2.6450351 0.0024102102    3.9175871    279726.26 
  173000    2.6426827 0.0023849903    3.9175908    279726.26 
  174000    2.6414744 0.0023886116    3.9175915    279726.26 
  175000    2.6491093 0.0023821286    3.9175197    279726.26 
  176000    2.6515691 0.0024363442    3.9327244    279726.26 
  177000    2.6423562 0.0023943464    3.9175656    279726.26 
  178000    2.6507174 0.0024115126    3.9328371    279726.26 
  179000    2.6508694 0.0024055693    3.9328382    279726.26 
  180000    2.6489611 0.0023995207    3.9328376    279726.26 
  181000    2.6457026 0.0024357888      3.91778    279726.26 
  182000     2.646907 0.0024117311    3.9248609    279726.26 
  183000    2.6467988  0.002403813    3.9248638    279726.26 
  184000    2.6462235 0.0024036208    3.9248625    279726.26 
  185000    2.6459542 0.0024032346    3.9248604    279726.26 
  186000    2.6365799 0.0024030784    3.9248613    279726.26 
  187000    2.6472803  0.002405352    3.9398096    279726.26 
  188000     2.643275 0.0025089289    3.9548933    279726.26 
  189000    2.6469154 0.0023981912    3.9404153    279726.26 
  190000    2.6362461 0.0023968035    3.9262424    279726.26 
  191000    2.6457579 0.0023996584    3.9411954    279726.26 
  192000    2.6450963  0.002400244    3.9411227    279726.26 
  193000     2.646654 0.0024037779    3.9411237    279726.26 
  194000    2.6477404 0.0024157049    3.9411232    279726.26 
  195000    2.6463576 0.0023998881    3.9411196    279726.26 
  196000    2.6482727 0.0024067734    3.9411179    279726.26 
  197000    2.6496551 0.0024004875    3.9411176    279726.26 
  198000    2.6465425 0.0024097149    3.9411179    279726.26 
  199000    2.6483003 0.0024081182     3.940742    279726.26 
  200000    2.6498532 0.0024023279    3.9407458    279726.26 
Loop time of 6.60252 on 1 procs for 200000 steps with 256 atoms

Pair  time (%) = 1.15079 (17.4296)
Neigh time (%) = 3.70579 (56.1269)
Comm  time (%) = 0.399145 (6.04535)
Outpt time (%) = 0.0111806 (0.169339)
Other time (%) = 1.33561 (20.2288)

Nlocal:    256 ave 256 max 256 min
Histogram: 1 0 0 0 0 0 0 0 0 0
Nghost:    77 ave 77 max 77 min
Histogram: 1 0 0 0 0 0 0 0 0 0
Neighs:    19 ave 19 max 19 min
Histogram: 1 0 0 0 0 0 0 0 0 0

Total # of neighbors = 19
Ave neighs/atom = 0.0742188
Neighbor list builds = 17333
Dangerous builds = 1582
#	run             	1000
	unfix 			1
	unfix 			2

#------------ NVE -----------------------------------------------------------------------------

	fix 			1 all nve
	timestep		${dt}
	timestep		0.0020000000000000000416
	thermo_style  		custom step temp press etotal vol
	thermo			1000
	run             	100000
Memory usage per processor = 2.13486 Mbytes
Step Temp Press TotEng Volume 
  200000    2.6498532 0.0024023279    3.9407458    279726.26 
  201000    2.6470504 0.0023999007    3.9407454    279726.26 
  202000     2.648151 0.0024180559    3.9407445    279726.26 
  203000    2.6475857 0.0024029545    3.9407458    279726.26 
  204000    2.6483024 0.0024367044    3.9407478    279726.26 
  205000    2.6464687 0.0024309663    3.9407323    279726.26 
  206000    2.6481945 0.0024158589    3.9407449    279726.26 
  207000    2.6461334 0.0024044823    3.9407446    279726.26 
  208000      2.64678 0.0024022121    3.9407445    279726.26 
  209000    2.6480729 0.0024177624    3.9407452    279726.26 
  210000    2.6466148 0.0024101326    3.9407445    279726.26 
  211000    2.6452518 0.0024013263    3.9407414    279726.26 
  212000    2.6490645 0.0024027463    3.9407416    279726.26 
  213000    2.6478227  0.002419707     3.940744    279726.26 
  214000    2.6466722 0.0024117451    3.9407454    279726.26 
  215000    2.6464623 0.0024475475    3.9407474    279726.26 
  216000    2.6467507 0.0024112767    3.9407462    279726.26 
  217000    2.6466548 0.0024006812    3.9407451    279726.26 
  218000    2.6450136 0.0023996428     3.940746    279726.26 
  219000    2.6481271 0.0024000357    3.9407447    279726.26 
  220000    2.6526715 0.0023990092    3.9407415    279726.26 
  221000    2.6448212 0.0023929937     3.940742    279726.26 
  222000    2.6510693 0.0023952846    3.9407431    279726.26 
  223000    2.6544041 0.0024056635    3.9407441    279726.26 
  224000    2.6478447 0.0024127318     3.940741    279726.26 
  225000    2.6470156 0.0024012689    3.9407405    279726.26 
  226000    2.6540186 0.0023918725    3.9407382    279726.26 
  227000    2.6474501 0.0023949818     3.940737    279726.26 
  228000    2.6467222 0.0024386745    3.9407386    279726.26 
  229000    2.6471105 0.0024001701    3.9407376    279726.26 
  230000    2.6470714 0.0024022925    3.9407359    279726.26 
  231000     2.645157 0.0023999561     3.940734    279726.26 
  232000    2.6418238 0.0024032976    3.9407344    279726.26 
  233000    2.6440001 0.0024004861    3.9407339    279726.26 
  234000    2.6449081 0.0023964968    3.9407357    279726.26 
  235000    2.6481878 0.0024015599    3.9407352    279726.26 
  236000    2.6440881 0.0024143715    3.9407341    279726.26 
  237000    2.6357774 0.0024874453     3.940744    279726.26 
  238000    2.6445292  0.002393216    3.9407358    279726.26 
  239000     2.646067 0.0023937286    3.9407371    279726.26 
  240000    2.6448007 0.0023982658    3.9407401    279726.26 
  241000      2.63946 0.0024013288    3.9407428    279726.26 
  242000    2.6405934 0.0023993731     3.940741    279726.26 
  243000    2.6420851  0.002398305    3.9407403    279726.26 
  244000    2.6437141 0.0024101466    3.9407382    279726.26 
  245000    2.6465148 0.0023953999    3.9407373    279726.26 
  246000    2.6422771 0.0024006306    3.9407346    279726.26 
  247000    2.6499205 0.0024207987    3.9407276    279726.26 
  248000    2.6413199 0.0024164787    3.9407355    279726.26 
  249000     2.637594 0.0024036173    3.9407351    279726.26 
  250000    2.6382627 0.0024025539     3.940736    279726.26 
  251000    2.6403966 0.0024076793     3.940733    279726.26 
  252000    2.6392634  0.002400572    3.9407331    279726.26 
  253000     2.638156 0.0024026478    3.9407332    279726.26 
  254000    2.6397904 0.0024359016    3.9407327    279726.26 
  255000    2.6466374 0.0024187548    3.9407297    279726.26 
  256000    2.6416009 0.0024026588     3.940732    279726.26 
  257000    2.6352645 0.0024697851    3.9407178    279726.26 
  258000    2.6385382 0.0024019278    3.9407337    279726.26 
  259000    2.6375811 0.0024037504    3.9407316    279726.26 
  260000    2.6412531 0.0024099796     3.940731    279726.26 
  261000    2.6414882 0.0024000561    3.9407325    279726.26 
  262000    2.6391388 0.0024007307    3.9407312    279726.26 
  263000    2.6421674 0.0023982107    3.9407321    279726.26 
  264000    2.6403716  0.002399463    3.9407309    279726.26 
  265000    2.6405817 0.0023991872     3.940732    279726.26 
  266000    2.6397461 0.0024004903    3.9407327    279726.26 
  267000    2.6431107 0.0024129069    3.9407312    279726.26 
  268000    2.6391562 0.0024530075    3.9407313    279726.26 
  269000    2.6433018 0.0024121801    3.9407331    279726.26 
  270000    2.6416206 0.0023984153    3.9407341    279726.26 
  271000    2.6414938 0.0023974083     3.940733    279726.26 
  272000    2.6402786  0.002402689    3.9407306    279726.26 
  273000    2.6291115 0.0025168643    3.9407423    279726.26 
  274000    2.6380571 0.0024028466    3.9407281    279726.26 
  275000    2.6389086 0.0024462849    3.9407292    279726.26 
  276000    2.6405204 0.0024025298    3.9407266    279726.26 
  277000     2.643685 0.0023942596    3.9407267    279726.26 
  278000    2.6398826 0.0024191606    3.9407203    279726.26 
  279000     2.643367 0.0024170875    3.9407266    279726.26 
  280000    2.6396143  0.002400368    3.9407264    279726.26 
  281000    2.6423412 0.0024348417    3.9407243    279726.26 
  282000    2.6379984 0.0024028221     3.940726    279726.26 
  283000    2.6401179 0.0023997323    3.9407265    279726.26 
  284000    2.6379949 0.0024029138    3.9407235    279726.26 
  285000    2.6427911 0.0024227888    3.9407135    279726.26 
  286000    2.6381454 0.0024024138    3.9407237    279726.26 
  287000    2.6386344 0.0024013013    3.9407249    279726.26 
  288000    2.6399092 0.0024022649      3.94073    279726.26 
  289000    2.6378976 0.0024028493    3.9407311    279726.26 
  290000    2.6416752 0.0024080286    3.9407297    279726.26 
  291000    2.6391252 0.0024005604    3.9407295    279726.26 
  292000    2.6386682 0.0024015785    3.9407295    279726.26 
  293000     2.640397 0.0024006151    3.9407284    279726.26 
  294000    2.6446999 0.0023959719    3.9407289    279726.26 
  295000    2.6382417 0.0024024619    3.9407307    279726.26 
  296000    2.6377427 0.0024033509    3.9407321    279726.26 
  297000    2.6404394 0.0024161142     3.940735    279726.26 
  298000    2.6447162 0.0024005516    3.9407339    279726.26 
  299000     2.644147 0.0024128711    3.9407289    279726.26 
  300000    2.6475233  0.002407969     3.940729    279726.26 
Loop time of 2.49798 on 1 procs for 100000 steps with 256 atoms

Pair  time (%) = 0.184988 (7.40552)
Neigh time (%) = 1.62129 (64.904)
Comm  time (%) = 0.169688 (6.79302)
Outpt time (%) = 0.00561571 (0.22481)
Other time (%) = 0.516398 (20.6726)

Nlocal:    256 ave 256 max 256 min
Histogram: 1 0 0 0 0 0 0 0 0 0
Nghost:    75 ave 75 max 75 min
Histogram: 1 0 0 0 0 0 0 0 0 0
Neighs:    9 ave 9 max 9 min
Histogram: 1 0 0 0 0 0 0 0 0 0

Total # of neighbors = 9
Ave neighs/atom = 0.0351562
Neighbor list builds = 8267
Dangerous builds = 185
#	run             	10000
	unfix 			1

#------------ kappa -------------------------------------------------------------------------
log 	log_kappa_${iseed}.lammps
log 	log_kappa_5.lammps
