	reset_timestep  	0
	fix 			1 all nve
	compute   		myKE all ke/atom
	compute   		myPE all pe/atom
	compute   		myStress all stress/atom virial
	compute   		flux all heat/flux myKE myPE myStress
	variable  		Jx equal c_flux[1]/vol
	variable  		Jy equal c_flux[2]/vol
	variable  		Jz equal c_flux[3]/vol
	fix       		JJ all ave/correlate $s $p $d c_flux[1] c_flux[2] c_flux[3] type auto file J0Jt_${iseed}.dat ave running
	fix       		JJ all ave/correlate 5 $p $d c_flux[1] c_flux[2] c_flux[3] type auto file J0Jt_${iseed}.dat ave running
	fix       		JJ all ave/correlate 5 200000 $d c_flux[1] c_flux[2] c_flux[3] type auto file J0Jt_${iseed}.dat ave running
	fix       		JJ all ave/correlate 5 200000 1000000 c_flux[1] c_flux[2] c_flux[3] type auto file J0Jt_${iseed}.dat ave running
	fix       		JJ all ave/correlate 5 200000 1000000 c_flux[1] c_flux[2] c_flux[3] type auto file J0Jt_1.dat ave running
#	fix       		JJ all ave/correlate $s $p $d c_flux[1] c_flux[2] c_flux[3] type auto ave running
#	dump			JJ all custom 1000000 J0Jt.dat f_JJ[3] f_JJ[4] f_JJ[5]
	compute 		myDis all msd
	thermo_style 		custom step temp press vol c_myDis[4] v_Jx v_Jy v_Jz
	thermo			1000
	timestep		${dt}
	timestep		0.0020000000000000000416
	run			2000000
Memory usage per processor = 3.5433 Mbytes
Step Temp Press Volume myDis[4] Jx Jy Jz 
       0     2.610818 0.0023659888    279726.26            0 0.00047775514 -0.00024934791 8.341806e-05 
    1000     2.613494 0.0023864529    279726.26    31.127451 0.00040306831 -0.00024070453 -3.0679071e-05 
    2000    2.6104528 0.0023694825    279726.26    123.81773 0.00047661206 -0.00018515808 -4.6149456e-05 
    3000    2.6196467 0.0023697985    279726.26    277.30685 0.00041955578 -0.00019232545 -8.0219636e-05 
    4000    2.6131849  0.002403036    279726.26    490.29035 0.00046922504 -0.00013173516 -6.8917701e-05 
    5000    2.6090578 0.0023629794    279726.26    757.04236 0.00028319062 -0.0002193173 7.0794741e-05 
    6000    2.6130541 0.0023857059    279726.26    1078.6582 0.0003064656 -0.00025310763 5.9175672e-05 
    7000    2.6143546 0.0023804051    279726.26    1459.8394 0.00020450326 -0.00032726666 1.6309325e-05 
    8000    2.6085773 0.0023653301    279726.26    1898.4997 0.00018144443 -0.0003403854 -1.4247042e-05 
    9000    2.6031137 0.0024125812    279726.26    2395.4252 0.00027806928 -0.00024713871 -3.8432819e-05 
   10000    2.6078142 0.0023630236    279726.26     2945.693 0.00025979482 -0.00031945055 3.2216101e-05 
   11000    2.6090663 0.0023700112    279726.26    3555.5756 0.00029768285 -0.00034075086 2.6398037e-05 
   12000      2.60943 0.0023920737    279726.26    4222.3259 0.0002104395 -0.00038692727 8.412628e-06 
   13000    2.6087607 0.0023628208    279726.26    4936.9977 0.00010036248 -0.00047799291 -3.7565104e-05 
   14000     2.606119 0.0023660352    279726.26    5705.0774 0.00010493525 -0.00040358292 -3.4774225e-05 
   15000    2.6073772 0.0023794621    279726.26    6529.6595 6.2240311e-05 -0.00044193056 -6.2779052e-05 
   16000    2.6089721 0.0023969488    279726.26    7415.1986 0.0001058902 -0.00038999995 -0.00013004478 
   17000    2.6119726 0.0023644972    279726.26    8360.9913 0.00011577775 -0.00042056844 -5.9907289e-05 
   18000    2.6055772 0.0023676393    279726.26    9360.6076 0.00013548037 -0.00044196768 -7.5514495e-05 
   19000    2.6069849 0.0023691934    279726.26    10417.176 5.4372122e-05 -0.00038176093 -9.9720308e-05 
   20000    2.6070485 0.0023836147    279726.26    11524.438 5.0856259e-05 -0.00031062572 -0.00011465771 
   21000    2.6068084  0.002373323    279726.26    12687.491 1.4351128e-05 -0.0002938785 -0.00015865708 
   22000    2.6057946 0.0023672034    279726.26     13900.93 0.0001219148 -0.00031102744 -0.00030692006 
   23000    2.6073384 0.0023676278    279726.26    15150.737 8.9484348e-05 -0.00034734617 -0.00026175853 
   24000    2.6111303 0.0023632545    279726.26    16457.072 0.00010848414 -0.00022518823 -0.00029079237 
   25000    2.6122264 0.0023650152    279726.26    17771.566 0.00014111636 -0.00015833339 -0.00015952952 
   26000    2.6062274 0.0023659434    279726.26    19120.979 0.00018649712 -0.00013094899 -0.00019400921 
   27000    2.6045035 0.0023791829    279726.26    20526.932 0.0002385416 -0.00013703725 -0.00025265352 
   28000    2.6053505 0.0023838813    279726.26    21995.382 0.00021836869 -0.00015691893 -0.00024670696 
   29000    2.6022187 0.0023709697    279726.26    23520.003 0.00023309688 -0.00010807663 -0.00024327185 
   30000    2.6043557 0.0023674252    279726.26    25075.526 0.00016997841 -7.629334e-05 -0.00021016998 
   31000    2.6043202 0.0023694867    279726.26    26669.428 0.00019881481 -0.00012586278 -0.0003166879 
   32000    2.6121929 0.0023753715    279726.26    28303.381 0.00023246203 6.1873639e-05 -0.00023569299 
   33000    2.6040417 0.0023677345    279726.26     29975.27 0.00018187632 9.6750571e-05 -0.00017310062 
   34000    2.6078108  0.002366032    279726.26     31658.92 0.00025339312 0.00015852911 -0.00019915338 
   35000    2.6067258 0.0023725138    279726.26    33393.307 0.0002330616 0.00014926996 -0.00015482751 
   36000    2.6119119 0.0023684502    279726.26    35193.056 0.00013195091 0.00034706629 -0.00020270052 
   37000     2.605754 0.0023838021    279726.26    36999.126 -1.5022997e-05 0.00030346485 -0.00011494295 
   38000    2.6076434 0.0023889723    279726.26    38819.134 0.00016604396 0.00026014233 -2.4339008e-05 
   39000    2.6044542 0.0023683434    279726.26    40685.249 0.00021326359  0.000215741 2.8104371e-06 
   40000    2.6057905 0.0023723687    279726.26    42570.375 0.0002082783 0.00014239282 1.5447152e-05 
   41000     2.611123 0.0023782468    279726.26    44467.361 0.00011554107 8.5464718e-05 -3.0969541e-06 
   42000    2.6063153 0.0023676465    279726.26     46392.74 2.4711211e-05 0.00013149172 -0.00020292585 
   43000    2.6093293 0.0023764282    279726.26    48338.424 9.6604102e-05 0.00010651828 -0.00023683461 
   44000    2.6023188 0.0023711555    279726.26    50324.585 7.2596963e-05 0.00012745629 -0.00020134376 
   45000    2.5998632 0.0024197402    279726.26    52361.166 0.0001171906 1.9738672e-05 3.3571395e-05 
   46000    2.6042725 0.0023843241    279726.26    54443.355 8.7737093e-05 -2.3282019e-05 -0.00025663331 
   47000    2.6047407 0.0023686189    279726.26    56574.601 0.00014148183 -0.00010335746 -0.00024336306 
   48000    2.6027586 0.0023697876    279726.26    58755.703 0.00021843426 -0.00021016368 -0.00022850623 
   49000    2.6083844 0.0023783002    279726.26    60987.747 0.00014223528 -0.00024169312 -0.00029589981 
   50000    2.6034494 0.0023687625    279726.26    63266.022 0.00020094359 -0.00024491089 -0.0002444499 
   51000    2.6021612 0.0023712991    279726.26    65593.181 0.00022901883 -0.00023274009 -0.00019466869 
   52000    2.6039155 0.0023694409    279726.26    67966.473 0.00024506839 -0.0002023564 -0.00021871483 
   53000    2.6036661 0.0023920818    279726.26    70377.716 0.00020286725 -0.00023544098 -0.00020490872 
   54000    2.6033553 0.0023682208    279726.26    72831.491 0.0002037536 -0.00022949281 -0.00019576081 
   55000    2.6062973 0.0023653085    279726.26    75340.076 0.0001700997 -0.0002033174 -0.00012970957 
   56000    2.6050562 0.0023741467    279726.26    77845.145 4.0562696e-05 -3.1656016e-05 -0.00013891039 
   57000    2.6056976   0.00236653    279726.26     80360.99 5.4300282e-05 -5.2983738e-05 -6.6118521e-05 
   58000    2.6045897 0.0023887373    279726.26    82866.241 -6.3494909e-05 -4.1556902e-07 -0.000173452 
   59000     2.602465 0.0024096982    279726.26    85406.144 -0.00011014918 -9.1990199e-05 -0.00026545003 
   60000    2.6060672 0.0023669293    279726.26    87991.417 -0.00010612037 -0.00013970393 -0.00029764552 
   61000    2.6024609 0.0023704399    279726.26     90570.46 -0.00011947083 -0.00026063915 -0.00021357597 
   62000    2.6050938 0.0023836443    279726.26    93182.191 -0.00011762056 -0.00022735818 -0.00016061938 
   63000    2.6032393  0.002369403    279726.26    95821.387 -2.5485455e-05 -0.00011256095 -0.00017699869 
   64000    2.6035646 0.0023691283    279726.26     98490.65 -2.4045171e-05 -0.00011469202 -0.00016971329 
   65000    2.6028933 0.0023696236    279726.26    101210.24 -3.9614191e-05 -0.00010287403 -0.00014985377 
   66000    2.6014165 0.0024053343    279726.26    103970.76 -0.00024583154 -0.00019255793 -0.00016910015 
   67000    2.6023662 0.0023707256    279726.26    106779.55 -2.7832077e-05 -0.00020303795 -0.00014981162 
   68000    2.6043589 0.0023681325    279726.26    109618.17 -1.8540094e-05 -0.00031460791 -1.9694304e-05 
   69000    2.6051948 0.0023692899    279726.26    112498.66 -2.2745864e-05 -0.00029411356 -3.8435532e-05 
   70000    2.6027666 0.0023698081    279726.26    115436.01 8.2713929e-06 -0.00028603841 -2.8872693e-05 
   71000    2.6096132 0.0023669432    279726.26    118428.46 1.682126e-05 -0.00022334064 -3.9067746e-05 
   72000    2.6078635 0.0023749116    279726.26    121447.56 -4.6907174e-05 -0.00026576359 -8.8764583e-05 
   73000    2.6056748 0.0023665404    279726.26    124520.48 -3.2660703e-05 -0.00022166477 -5.5918535e-05 
   74000    2.6078193 0.0023674146    279726.26    127648.36 -3.2048504e-05 -0.00016517375 -7.127988e-05 
   75000    2.5941355 0.0024568432    279726.26    130828.87 -4.9839431e-05 -7.380242e-05 -6.5838006e-05 
   76000    2.6073297 0.0023656305    279726.26    134019.41 -7.4677964e-05 -7.3063037e-05 -0.00011070972 
   77000    2.6059777 0.0023821112    279726.26    137233.89 3.4860205e-05 -0.00013198966 -1.0747102e-06 
   78000    2.6051117 0.0023696575    279726.26    140475.04 -1.1095557e-05 -0.00014752439 -3.2989084e-06 
   79000    2.6035443 0.0023690123    279726.26    143729.52 -4.4295013e-07 -0.00020709925 3.4677808e-05 
   80000    2.6045802 0.0023762887    279726.26     146997.6 4.5965619e-05 -0.00025696461 8.7142407e-06 
   81000    2.6070924 0.0023753103    279726.26    150315.92 0.00010940631 -0.00026599354 4.8604299e-05 
   82000    2.6035202 0.0023692596    279726.26    153673.66 9.6558726e-05 -0.00027882487 3.8487851e-05 
   83000    2.6053567 0.0023683727    279726.26    157091.84 0.00011761298 -0.00020746617 3.3842982e-05 
   84000    2.6086747 0.0023678198    279726.26    160566.69 0.0001943752 -0.00020424998 1.413116e-05 
   85000    2.6047795 0.0023664188    279726.26    164077.89 0.00014095486 -0.00018693713 3.385827e-05 
   86000    2.6085559 0.0023631437    279726.26    167606.62 0.00013726409 -0.0001623558 1.6355541e-05 
   87000    2.6065051 0.0023765581    279726.26    171021.72 0.00012159052 -0.00016834941 6.4283101e-05 
   88000    2.6070761 0.0023745751    279726.26    174436.11 0.00016120554 -0.00011776413 7.6802241e-05 
   89000    2.6068021 0.0023671406    279726.26    177880.19 0.00012195111 -0.00012145093 6.8786097e-05 
   90000    2.6042756 0.0023675909    279726.26    181355.77 0.00012365824 -0.00012266574 9.2850744e-05 
   91000     2.604261 0.0023682131    279726.26    184856.82 0.0001460058 -0.00015284289 9.9108124e-05 
   92000    2.6078626  0.002366237    279726.26    188421.12 0.00016025669 -0.00015850779 7.7142167e-05 
   93000    2.6073848 0.0023699054    279726.26    191863.65 -2.414147e-05 -0.00016948022 0.00024465901 
   94000     2.607665 0.0023622968    279726.26    195317.62 -6.3221996e-05 -0.00022661592 0.0002386507 
   95000    2.6029727 0.0023690916    279726.26    198802.66 -1.6605451e-05 -0.00016068372 0.00023108018 
   96000    2.6026026 0.0023704187    279726.26    202329.44 -1.3529198e-07 -0.00019295499 0.00025096951 
   97000    2.6025423 0.0023704041    279726.26    205839.44 -1.1641508e-05 -0.0001071022 0.00017681945 
   98000     2.604385 0.0023678405    279726.26    209302.16 -9.4553702e-05 -0.0001178978 0.0002422237 
   99000    2.6096203 0.0023705378    279726.26    212808.12 -0.0001480946 -6.1456151e-05 0.00014857613 
  100000    2.6023334 0.0023708839    279726.26    216349.26 -0.00018045956 0.00010268934 0.00010187713 
  101000    2.6036963 0.0023684816    279726.26    219885.13 -7.9155862e-05 0.00014486373 8.0263276e-05 
  102000    2.6024717 0.0023706363    279726.26    223452.05 -0.000137787 0.00015214999 0.00019111542 
  103000    2.6066033 0.0023737182    279726.26    227067.82 -8.0466782e-05 0.00018019555 0.0002175801 
  104000    2.6039314 0.0023675802    279726.26    230725.75 -8.0916095e-05 0.0001898046 0.00022969923 
  105000    2.6020146 0.0023717846    279726.26    234428.09 -0.00012564036 0.00015525989 0.00017079099 
  106000     2.608787 0.0023848109    279726.26    238183.28 -0.00011603721 0.00014731366 0.0001349809 
  107000    2.6021343 0.0023712284    279726.26    241932.03 -8.2666343e-05 0.00019905314 0.0001422011 
  108000    2.6031378 0.0023691855    279726.26    245705.16 -9.2445944e-06 0.00030216763 0.00015740548 
  109000    2.6019793 0.0023718523    279726.26    249533.35 -2.0248438e-05 0.00029407358 0.00015907423 
  110000    2.6022251 0.0023711895    279726.26    253428.73 -2.4179978e-05 0.00029415619 0.00019829103 
  111000    2.6051163 0.0023664624    279726.26    257370.53 -6.3135308e-05 0.00034547599 0.00025044068 
  112000    2.5905539 0.0024805251    279726.26    261351.48 0.00017765937 0.0012916865 -0.00031810528 
  113000    2.6025861 0.0023703273    279726.26    265328.89 -0.00014943284 0.00020873108 0.00019316857 
  114000    2.6080225 0.0023646607    279726.26    269317.97 -0.0001538148 0.00025958929 0.0001722457 
  115000    2.6029255 0.0023695492    279726.26    273215.37 -2.4831635e-05 0.00029128823 0.00023552537 
  116000    2.6046849 0.0023670152    279726.26    277117.32 -2.6111697e-05 0.00026530737 0.00026494821 
  117000    2.6045675 0.0023684342    279726.26    281046.89 -9.101587e-06 0.00022141334 0.00026133572 
  118000    2.6021324  0.002371451    279726.26    284939.26 0.00011239795 0.00011274689 0.00030445006 
  119000      2.60445 0.0023885303    279726.26    288841.69 0.0001096938 0.00013313243 0.00026462141 
  120000    2.6035143 0.0023687031    279726.26    292734.99 9.3866819e-05 0.00011559987 0.00022856879 
  121000    2.6027742 0.0023700038    279726.26    296656.46 0.00010745063 0.00015686889 0.00019484284 
  122000     2.605732 0.0023683549    279726.26    300600.66 0.00010336663 0.00015160926 0.00017882221 
  123000    2.6036035 0.0023675069    279726.26    304586.17 0.00021306391 0.00012988865 0.00011121043 
  124000    2.6073218 0.0023733955    279726.26    308571.09 0.00017829698 0.00024940368 8.2784483e-05 
  125000     2.603815 0.0023681009    279726.26    312522.77 0.00019309794 0.00023658376 6.5285981e-05 
  126000    2.6025887 0.0023703353    279726.26    316487.73 0.00028940536 0.00026642697 -6.8836566e-05 
  127000    2.6038547 0.0023674808    279726.26    320440.55 0.00028415044 0.00024041723 -5.3340367e-06 
  128000    2.6037562 0.0023679873    279726.26    324422.67 0.00028323171 0.00021936294 -6.7434545e-05 
  129000    2.6023673 0.0023706931    279726.26    328416.44 0.00029650605 0.00018489647 -8.1486913e-05 
  130000    2.6069486 0.0023706743    279726.26     332317.6 0.00027612523 0.00015703909 -0.00013103816 
  131000    2.6067862 0.0023734054    279726.26    336255.54 0.00026868646 0.00019419131 -0.00018608775 
  132000    2.6038625 0.0023989276    279726.26    340133.22 0.00017470411 0.00017762916 -0.00017085093 
  133000     2.603905 0.0023681272    279726.26    344013.38 0.00018485349 0.00022572489 -0.00013322014 
  134000    2.6036925 0.0023683274    279726.26    347857.87 0.00024764751 0.00021586632 -0.00015625825 
  135000    2.6056374 0.0023665604    279726.26    351689.98 0.0001877153 0.00022582292 -0.00011214638 
  136000    2.6030007 0.0023694869    279726.26    355522.92 0.00020575481 0.00020967692 -0.00014739175 
  137000    2.6030834 0.0024181444    279726.26    359409.96 0.00035250879 0.00036467881 -0.00022785327 
  138000    2.6025766 0.0023706192    279726.26    363329.96 0.00022310965 0.00020132202 -0.00014804205 
  139000    2.6019744 0.0023719742    279726.26    367318.35 0.00021365732 0.00021744461 -0.00013873758 
  140000    2.6039778 0.0023674713    279726.26    371365.03 0.00017280759 0.00020415838 -0.00017859611 
  141000    2.6029337 0.0023696377    279726.26    375438.78 0.00018442289 0.00019198371 -0.00014228293 
  142000    2.6042386 0.0023686905    279726.26    379519.85 8.493935e-06 0.00031236976 -8.5540916e-05 
  143000    2.6028134 0.0023696031    279726.26    383562.82 -1.9939083e-06 0.00029695933 -5.6047511e-05 
  144000    2.6082164 0.0023724971    279726.26    387676.86 -0.0001053108 0.00024650135 -8.6275983e-05 
  145000    2.6027217 0.0024056838    279726.26    391810.12 -4.9421289e-05 0.00017346903 -5.9030314e-06 
  146000    2.6056162  0.002365991    279726.26    395921.86 -0.00012049455 0.00020427468 1.5455958e-05 
  147000    2.6027215 0.0023699866    279726.26     399997.2 -0.00011600766 0.00022398459 1.6016666e-05 
  148000    2.6059356 0.0023713625    279726.26    404087.42 -0.00017748346 0.00030458983 1.3053648e-05 
  149000    2.6060804 0.0023642699    279726.26    408230.08 -0.00020304337 0.00026116335 -1.1408824e-05 
  150000    2.6025371 0.0023706577    279726.26    412414.24 -0.00020666469 0.00029372668 -5.906169e-05 
  151000    2.6024536 0.0023705525    279726.26    416614.28 -0.00020658682  0.000294538 -5.414455e-05 
  152000    2.6090196 0.0023781715    279726.26    420865.56 -0.00025656921 0.00031858448 -4.3127822e-05 
  153000    2.6046451 0.0023679765    279726.26    425128.85 -0.00031713173 0.0003824454 -7.0226445e-05 
  154000    2.6048215 0.0023727349    279726.26    429423.95 -0.00033219707  0.000378809 -6.7099689e-05 
  155000    2.5944812 0.0024678971    279726.26    433709.22 -0.00039660322 0.00065933815 -9.3344483e-05 
  156000    2.6024671 0.0023706538    279726.26    437976.17 -0.00031464855 0.00056546523 -0.00012894435 
  157000    2.6072757 0.0023660655    279726.26    442299.33 -0.00032512524 0.00058184189 -0.00021170629 
  158000    2.6023282 0.0023706583    279726.26    446605.67 -0.00030339396 0.00064000208 -0.00033714374 
  159000    2.6029177 0.0023700437    279726.26    450871.46 -0.00019530304 0.0006071383 -0.00036294322 
  160000    2.6079244 0.0023682906    279726.26    455134.62 -0.00018051242 0.00040753742 -0.00037363359 
  161000    2.6026315 0.0023700269    279726.26    459358.39 -0.00013929895 0.00048996231 -0.00040076276 
  162000    2.6027932 0.0023701542    279726.26     463593.9 -0.0001397947 0.00054606105 -0.00040977899 
  163000    2.6037421 0.0023687192    279726.26    467823.18 -8.3173625e-05 0.00056977983 -0.00045217405 
  164000    2.6028194 0.0023698336    279726.26    472093.75 -0.00011093448 0.00056097497 -0.00047984441 
  165000    2.6045067 0.0023682018    279726.26    476393.36 -0.00016541541 0.00048630413 -0.0004552655 
  166000     2.604713 0.0023709421    279726.26    480701.53 -0.00025512074 0.00040367806 -0.00051423186 
  167000    2.6057223 0.0023673756    279726.26    484948.83 -0.00020191246 0.00039542591 -0.00050283395 
  168000    2.6082334 0.0024447034    279726.26    489077.09 -0.00025804859 0.00034071387 -0.00052351132 
  169000    2.6101482 0.0023771137    279726.26    493027.63 -0.00021531662 0.00049066732 -0.00070094512 
  170000    2.6021798 0.0023711623    279726.26    496929.72 -0.00033952639 0.00047045769 -0.00080719377 
  171000     2.605203 0.0023885662    279726.26    500863.23 -0.00037989057 0.00050075365 -0.00074007374 
  172000    2.6039064 0.0023682717    279726.26    504830.56 -0.00036505374 0.00041707801 -0.00083701495 
  173000    2.6061345 0.0023707633    279726.26    508797.56 -0.0003667459 0.00042828253 -0.00084599113 
  174000    2.6038741 0.0023680775    279726.26    512742.01 -0.00037657193 0.00039450968 -0.00072318126 
  175000    2.6063293 0.0023696948    279726.26    516664.93 -0.00041372726 0.00036185814 -0.000696891 
  176000    2.6044164 0.0023666293    279726.26    520632.46 -0.00041891229 0.00044630521 -0.00065183733 
  177000    2.6063987 0.0023647746    279726.26    524639.11 -0.00039792525 0.00046773015 -0.000571475 
  178000    2.6132279 0.0023643295    279726.26     528661.4 -0.00050298346 0.00048009417 -0.00048374903 
  179000    2.6061247 0.0023655658    279726.26    532564.29 -0.00047832594 0.00043313648 -0.00046907496 
  180000    2.6060939 0.0024108183    279726.26    536405.86 -0.00039653654 0.00028283753 -0.00054797306 
  181000    2.6025394 0.0024208378    279726.26    540130.57 -0.00025636497 0.0005247327 -0.00062178822 
  182000    2.6063857 0.0023727116    279726.26     543869.9 -0.00030443339 0.00016211779 -0.00052370369 
  183000    2.6043336 0.0023845814    279726.26    547659.86 -0.00030746917 0.00016639584 -0.00048029928 
  184000    2.6039855 0.0023672369    279726.26    551511.97 -0.00027158747 0.00023101329 -0.00040802595 
  185000    2.6044359 0.0023677859    279726.26    555370.12 -0.00032472992 0.00026535126 -0.00040879435 
  186000     2.605939  0.002369344    279726.26    559295.82 -0.00036983362 0.00027176838 -0.00038323653 
  187000    2.6063224 0.0023680829    279726.26    563259.98 -0.00038052926 0.00019346721 -0.00021911155 
  188000    2.6045678 0.0023686399    279726.26    567311.34 -0.00038796576 0.00020924558 -0.00019692292 
  189000    2.6076904  0.002368674    279726.26    571375.25 -0.00047746414 9.8625814e-05 -6.9318063e-05 
  190000    2.6089358 0.0023787786    279726.26    575446.65 -0.00050085745 6.5413227e-05 -7.5911405e-05 
  191000    2.6029846  0.002369855    279726.26    579561.86 -0.00060211751 6.835745e-05 -3.2219116e-05 
  192000    2.6040806  0.002368446    279726.26    583723.37 -0.00065048085 0.00020230428 -7.6335896e-05 
  193000    2.6047229 0.0023708394    279726.26    587952.84 -0.00091679474 0.00040060684 -6.1775208e-06 
  194000    2.5990484  0.002440289    279726.26    592200.03 -0.0010704602 0.00032078093 0.00012423728 
  195000    2.6083704 0.0023608857    279726.26    596485.48 -0.0010712313 0.00043376669 -1.0910449e-05 
  196000    2.6125033 0.0023765483    279726.26    600825.63 -0.00097881243 0.00036642155 -3.0482544e-05 
  197000    2.6080392 0.0023638179    279726.26    605198.89 -0.00095893829 0.00031502924 -7.7188946e-05 
  198000    2.6046588 0.0023673879    279726.26    609540.19 -0.0010103688 0.00032434809 -2.6562084e-06 
  199000     2.609698 0.0023700848    279726.26    613895.99 -0.00093187019 0.00032074209 3.8259264e-05 
  200000    2.6058516 0.0024005552    279726.26    618255.47 -0.0009333662 0.0003407191 0.00012409494 
  201000     2.604067 0.0023675389    279726.26    622660.51 -0.00096809109 0.00029674117 7.7976552e-05 
  202000    2.6040005  0.002368066    279726.26    626885.27 -0.0010598884 0.0003051428 3.2222311e-05 
  203000    2.6024757 0.0024052428    279726.26    631118.75 -0.0011292383 0.00037009706 0.00016537045 
  204000    2.6044374 0.0023671003    279726.26    635358.15 -0.0011090995 0.00026189803 5.1813504e-05 
  205000    2.6023828 0.0023709281    279726.26    639541.89 -0.0010132431 0.00024193113 4.1117943e-05 
  206000    2.6025216 0.0023703393    279726.26    643764.44 -0.00096861226 0.00025266886 2.8517841e-05 
  207000    2.6035634 0.0023905678    279726.26    648071.59 -0.00095873278 0.00021728184 -5.453856e-05 
  208000    2.6089632 0.0023660139    279726.26    652451.89 -0.00096400771 0.00018359244 -5.6202769e-05 
  209000     2.613497 0.0023781161    279726.26       656865 -0.00092680822 0.00013424318 -3.7528602e-05 
  210000    2.6053202  0.002366387    279726.26    661321.92 -0.00098746564 9.1562923e-05 7.7549137e-05 
  211000    2.6038751 0.0023678757    279726.26    665741.05 -0.00098310832 3.2244389e-05 5.450587e-05 
  212000    2.6055463  0.002366576    279726.26    670016.58 -0.0012284053 2.394931e-05 -7.1751467e-05 
  213000    2.6058576 0.0024245133    279726.26    674254.51 -0.0011889683 -0.00022528274 -0.00016846711 
  214000    2.6027677 0.0023700396    279726.26    678518.14 -0.0012803259 -0.00010098023 -0.00011324844 
  215000    2.6043955  0.002367037    279726.26    682839.27 -0.0012582727 -7.3103116e-05 -0.00010245342 
  216000    2.6043723 0.0023666998    279726.26    687243.79 -0.0012739208 -0.00010134321 -0.00012318472 
  217000    2.6077841  0.002375646    279726.26    691632.49 -0.0013013436 -5.9387239e-05 -0.00011644837 
  218000    2.6069887 0.0023641484    279726.26    695987.66 -0.0012516061 -9.9267496e-05 -0.00014201173 
  219000    2.6030236 0.0024197667    279726.26    700332.03 -0.0012417514 -0.00016259828 -0.00015840147 
  220000    2.6039809 0.0023673648    279726.26    704667.27 -0.0011166489 -0.00025565128 -6.324173e-05 
  221000    2.6057793  0.002366168    279726.26    708995.43 -0.0011458879 -0.00026567881 -6.5956436e-05 
  222000    2.6025232 0.0023705802    279726.26    713340.46 -0.0011775418 -0.0003482922 -8.3794472e-05 
  223000    2.6055673 0.0023663005    279726.26    717684.15 -0.0012002832 -0.00037702295 -0.0001025797 
  224000    2.6045477 0.0023699089    279726.26    722004.44 -0.0012660508 -0.00030694419 -3.1900161e-05 
  225000    2.6074722 0.0023690401    279726.26    726358.01 -0.0012761484 -0.0003051144 -5.5037013e-05 
  226000    2.6081186 0.0023635623    279726.26    730593.57 -0.0018129497 -0.00011687973 -2.7233694e-05 
  227000    2.6047669 0.0023669865    279726.26    734739.98 -0.0018010998 -0.00018956216 -5.2089798e-05 
  228000    2.6038336 0.0023687059    279726.26    738921.07 -0.0018784503 -0.00024763306 6.2885937e-05 
  229000    2.6071595 0.0023744784    279726.26    743101.06 -0.0019867581 -0.00048943071 6.1539656e-05 
  230000    2.6039535 0.0023678537    279726.26    747260.08 -0.0020219432 -0.00052961975 1.4323076e-05 
  231000    2.6061012 0.0023658145    279726.26    751468.02 -0.0020338766 -0.00051992159 -3.1244867e-05 
  232000    2.6100382 0.0023853662    279726.26    755691.81 -0.0020516506 -0.00049485562 -5.1840195e-05 
  233000    2.6119224  0.002404382    279726.26    759964.53 -0.0020486044 -0.00047690956 -1.6921385e-05 
  234000    2.6058767 0.0023669253    279726.26    764258.66 -0.0020275239 -0.00044630522 -2.438829e-05 
  235000    2.6060946 0.0023657206    279726.26    768549.71 -0.0020681105 -0.00040532382 -5.9447971e-05 
  236000    2.6041654  0.002368552    279726.26    772872.53 -0.0020880758 -0.00040371072 -6.2328612e-05 
  237000    2.6065133 0.0023658843    279726.26    777240.48 -0.0020028017 -0.00054839825 -5.2121201e-05 
  238000    2.6064416 0.0023652101    279726.26    781669.32 -0.0020063684 -0.00052944926 -4.9098663e-05 
  239000    2.6043054 0.0023671806    279726.26    786148.16  -0.00195792 -0.00054244633 -3.3971662e-05 
  240000    2.6028058 0.0023695103    279726.26    790657.34 -0.0019983123 -0.00059492711 -6.0718218e-05 
  241000    2.6048818 0.0023657085    279726.26    795066.73 -0.0016332953 -0.00052583166 -0.00019894415 
  242000    2.6062583 0.0023845426    279726.26    799511.14 -0.001350641 -0.00037228428 -0.00012997323 
  243000    2.6070607  0.002366366    279726.26    804012.59 -0.0013547999 -0.0004565819 -0.00015835494 
  244000    2.6043429 0.0023674968    279726.26    808557.06 -0.0013208045 -0.00045148752 -0.00026179993 
  245000    2.6058906 0.0023673144    279726.26    813114.26 -0.0013131209 -0.00045774915 -0.00026369627 
  246000    2.6054192 0.0023650955    279726.26     817721.9 -0.0013248795 -0.00042671991 -0.00017773272 
  247000    2.6057511 0.0023659298    279726.26    822323.85 -0.0013268316 -0.00039044143 -0.00013093173 
  248000    2.6097109 0.0023657778    279726.26    826974.14 -0.0013095701 -0.0003976518 -0.00012807817 
  249000    2.6042341    0.0023674    279726.26    831650.02 -0.0012946168 -0.00037424018 -0.0001122265 
  250000    2.6041321 0.0023687122    279726.26    836347.11 -0.0012871111 -0.00036608957 -9.3148864e-05 
  251000    2.6067535 0.0023644065    279726.26    841073.63 -0.0012110111 -0.00033360787 -0.00018347983 
  252000    2.6062099 0.0023810717    279726.26    845790.33 -0.0010265864 -0.00038155691 -0.00021785275 
  253000    2.6090619 0.0023605032    279726.26    850436.16 -0.00094842725 -0.00037839043 -0.00023411354 
  254000    2.6080875 0.0023737719    279726.26    855019.24 -0.0010041373 -0.00036854717 -0.00019256009 
  255000    2.6065002 0.0023691445    279726.26    859643.41 -0.0010046025 -0.00037184546 -0.00020528092 
  256000    2.6050992 0.0023657704    279726.26    864299.79 -0.00087821641 -0.00032632222 -9.4977865e-05 
  257000     2.604275 0.0023669633    279726.26    868917.86 -0.00072199806 -0.00036164586 -0.00017235667 
  258000    2.6032985 0.0023686467    279726.26    873487.36 -0.00073833094 -0.00033714368 -0.0001398258 
  259000    2.6058209 0.0023670732    279726.26    877988.39 -0.00058774534 -0.00031522073 -0.00023283337 
  260000    2.6014296 0.0024342986    279726.26    882293.73 -0.00054033696 -0.00026422865 -0.00043939739 
  261000    2.6108781 0.0023805809    279726.26    886326.55 -0.00048717906 -0.00025715776 -0.00015486419 
  262000    2.6073774 0.0023833952    279726.26    890379.54 -0.00044817942 -0.0002387493 -0.00013295695 
  263000     2.608212 0.0023793145    279726.26    894492.45 -0.00049724747 -0.00036644694 -0.00012869723 
  264000    2.6034571 0.0023695775    279726.26    898728.22 -0.00052684234 -0.00034277447 -0.00013000403 
  265000    2.6023846 0.0023708184    279726.26    903006.12 -0.00049938127 -0.00030731152 -6.5945773e-05 
  266000    2.6041138 0.0024090955    279726.26    907198.56 -0.00056591064 -0.00047337465 8.2207403e-05 
  267000    2.6032963 0.0023953217    279726.26    911358.27 -0.00054320678 -0.00028971091 -4.2977717e-05 
  268000    2.6047665 0.0023657347    279726.26    915566.33 -0.00044877566 -8.0031448e-05 0.00013894333 
  269000    2.6092764  0.002370289    279726.26    919852.95 -0.00077428286 -0.00012712833 0.00028906639 
  270000     2.607293 0.0023654774    279726.26    924263.23 -0.00048436197 -3.3073845e-05 0.00034759198 
  271000     2.602909 0.0023697094    279726.26    928784.52 -0.00045709174 -4.5451511e-06 0.00032890459 
  272000    2.6057068 0.0023668663    279726.26    933234.46 -0.00036908854 0.00017272155 0.00025412292 
  273000    2.6081186 0.0023628117    279726.26    937531.48 -0.00034291567 0.00016997227 0.00027548957 
  274000    2.6040376 0.0023687207    279726.26    941779.23 -0.00033523097 8.5668878e-05 0.00021841825 
  275000    2.6035162 0.0023687038    279726.26    946065.87 -0.00033811323 0.00013701315 0.00018687328 
  276000    2.6024677 0.0023704477    279726.26     950369.1 -0.00030116255 -2.5739383e-05 0.00022118249 
  277000    2.6055852 0.0023656278    279726.26    954770.54 -0.00022024885 0.00010577262 0.0002761995 
  278000    2.6030623  0.002369076    279726.26    959190.25 -0.00020521017 0.00011606988 0.0002728712 
  279000    2.6073579 0.0023723962    279726.26    963641.03 -0.00024900858 0.00012327756 0.00030925574 
  280000    2.6038314 0.0023904877    279726.26    968065.33 -0.00021427552 0.00019848933  0.000242299 
  281000    2.6022674 0.0023711568    279726.26    972467.05 -0.00040677045 0.00011022718 0.00023248895 
  282000    2.6058827 0.0023669529    279726.26       976920 -0.00039715343 -7.3023266e-05 0.00029022499 
  283000    2.6076063 0.0023717444    279726.26     981312.4 -0.00040119435 7.8891097e-06 0.0002540216 
  284000    2.6022204 0.0023711247    279726.26    985795.33 -0.0004607856 -1.7996751e-05 0.00027398674 
  285000    2.6088701 0.0023906066    279726.26    990227.76 -0.00041403955 2.7878758e-06 0.00027613098 
  286000    2.6086427 0.0023693742    279726.26    994625.75 -0.00035376963 -2.1069967e-05 0.00017340234 
  287000    2.6064432 0.0023657569    279726.26    999097.81 -0.00030693082 -1.0648725e-05 0.00016956965 
  288000    2.6063059  0.002364632    279726.26    1003650.1 -0.00021414496 -0.00013959514 7.3052149e-06 
  289000    2.6045607 0.0024202039    279726.26    1008232.9 -0.00068040153 -3.9638795e-05 -3.4513326e-05 
  290000    2.6060243  0.002367277    279726.26    1012649.7 -0.00050824336 -0.00015807491 -0.00011314338 
  291000    2.6043266 0.0023827774    279726.26      1017030 -0.00049263518 -0.0001741022 -0.0001363209 
  292000    2.6033694 0.0023687441    279726.26    1021301.7 -0.00043884406 -0.00015412355 -0.0001306256 
  293000    2.6043829 0.0023670644    279726.26    1025611.4 -0.00045357915 -0.00016251471 -0.00016080088 
  294000    2.6029454 0.0023695764    279726.26    1030026.7 -0.00047499345 -0.0001443204 -0.00014446223 
  295000    2.6034607 0.0024131455    279726.26      1034474 -0.00056917366 -0.00012612437 -0.0002967472 
  296000    2.6055212 0.0023662309    279726.26    1038916.6 -0.00050587527 -0.0001498377 -0.00019364442 
  297000    2.6051213 0.0023781648    279726.26    1043325.7 -0.00056780118 -0.00019330402 -0.00025109277 
  298000    2.6097303 0.0023637239    279726.26    1047768.2 -0.0005994513 -0.00017704568 -0.0002783281 
  299000      2.60512 0.0023667306    279726.26    1052268.2 -0.00055683836 -5.4232255e-05 -0.00025414511 
  300000    2.6035026 0.0023682284    279726.26    1056814.6 -0.00055309742 -3.9092617e-05 -0.00027044748 
  301000    2.6024654 0.0023707161    279726.26    1061426.3 -0.00061115568 -2.2114673e-05 -0.00022831608 
  302000    2.6028209 0.0023693877    279726.26    1066105.3 -0.00062104025 -9.9318646e-06 -0.00021138068 
  303000    2.6031971 0.0023694301    279726.26    1070766.4 -0.00061746962 -0.00012863924 -0.00028609043 
  304000     2.604902  0.002368636    279726.26    1075403.3 -0.00062911461 -0.00012922536 -0.00032839549 
  305000    2.6029976 0.0023697248    279726.26    1080107.9 -0.00057805066 -0.00011417092 -0.00027916807 
  306000    2.6036063 0.0023684351    279726.26    1084893.9 -0.00058477421 -0.00015747002 -0.0003003533 
  307000     2.603202 0.0023696023    279726.26    1089714.7 -0.00059941524 -0.00015395063 -0.00031244383 
  308000    2.6026744 0.0023704365    279726.26    1094541.8 -0.0004952764 -0.00028738509 -0.00038924937 
  309000     2.603374 0.0023687407    279726.26    1099395.8 -0.00050452197 -0.00029698155 -0.00039528972 
  310000    2.6057919 0.0023688174    279726.26    1104309.5 -0.00044032818 -0.00032311404 -0.00044548863 
  311000    2.6044683 0.0023673086    279726.26    1109239.4 -0.00051653215 -0.00037267292 -0.00039969171 
  312000    2.6064332 0.0023735863    279726.26      1114071 -0.00051406854 -0.00030240249 -0.00028106809 
  313000     2.605366 0.0023677762    279726.26    1118828.1 -0.00051422562 -0.00028246486 -0.00025115245 
  314000    2.6056728 0.0023652335    279726.26    1123527.5 -0.00034639407 -0.00019768805 -0.00016128719 
  315000    2.6057852 0.0023692402    279726.26    1128213.8 -0.00037722768 -0.00023486069 -0.00011145572 
  316000    2.6061266 0.0023671286    279726.26    1132770.5 -0.00045937868 -0.00026781654 -6.1851676e-05 
  317000    2.6036918 0.0023685112    279726.26    1137375.6 -0.00048830191 -0.0002546747 -6.1296801e-05 
  318000    2.6079593  0.002378424    279726.26    1142034.4 -0.0005210081 -0.0001018898 9.0702943e-06 
  319000    2.6026791 0.0023696506    279726.26    1146680.7 -0.00061192175 -0.00016622108 -3.0705106e-05 
  320000    2.6045535 0.0023976324    279726.26      1151241 -0.00047017824 -7.059814e-05 -9.5418437e-05 
  321000    2.6060099 0.0023815691    279726.26    1155618.5 -0.00043874367 -0.00013490238 -1.389074e-05 
  322000    2.6072345 0.0023868604    279726.26      1159938 -0.00043384432 -0.00014439852 -4.2869453e-05 
  323000    2.6053571 0.0023654806    279726.26    1164213.7 -0.00047122826 -8.8744591e-05 -2.2293954e-05 
  324000    2.6061812 0.0023655852    279726.26    1168383.6 -0.00046202674 -4.1490404e-05 2.5226471e-06 
  325000    2.6036581   0.00236917    279726.26      1172530 -0.0004405622 -3.092241e-05 6.2231342e-07 
  326000    2.6050799 0.0023663926    279726.26    1176734.8 -0.0004847636 -3.4733459e-05 2.4999033e-05 
  327000     2.608356 0.0023721855    279726.26    1180999.5 -0.00054251197 -2.4907337e-05 7.5725025e-05 
  328000    2.6051677 0.0023796404    279726.26    1185263.6 -0.00052216615 -3.5449653e-05 6.3947841e-05 
  329000     2.603704  0.002368206    279726.26    1189587.8 -0.00052607266 -4.0332745e-05 5.4830143e-05 
  330000    2.6021168 0.0023715673    279726.26    1193929.2  -0.00052967 -5.8421948e-05 6.7384932e-05 
  331000    2.6046618 0.0023691278    279726.26    1198330.9 -0.00051916414 -9.7456317e-06 0.00010278996 
  332000    2.6064612 0.0023727585    279726.26    1202750.8 -0.00067355455 -6.8972564e-05 0.00013295253 
  333000    2.6042803 0.0023690591    279726.26    1207249.6 -0.00065807587 -3.5140796e-05 0.00013944415 
  334000    2.6069255 0.0023668071    279726.26      1211806 -0.0006308813 -5.5890308e-05 0.00011543628 
  335000    2.6023855 0.0023705061    279726.26    1216360.1 -0.00057101385 4.5812161e-05 8.779336e-05 
  336000    2.6027781 0.0023696981    279726.26      1220976 -0.00051820343 1.5959257e-05 -1.4091676e-05 
  337000    2.6069174 0.0023689272    279726.26    1225598.5 -0.00039703968 -8.6415324e-05 -1.3771927e-05 
  338000    2.6042178 0.0023676003    279726.26    1230184.7 -0.0003707846 -2.541858e-05 -7.7089162e-06 
  339000    2.6043669 0.0023688002    279726.26    1234719.2 -0.00034123845 -7.7533793e-05 -4.7444238e-05 
  340000    2.6031084 0.0023701266    279726.26    1239323.6 -0.00033908893 -6.9265092e-05 -4.2315654e-05 
  341000    2.6034758 0.0023687378    279726.26    1243875.4 -0.00024938594 -1.5915687e-05 5.3693717e-05 
  342000     2.608744 0.0023827052    279726.26      1248455 -0.00038056232 4.1257433e-05 3.0079869e-05 
  343000    2.6043966 0.0023677851    279726.26    1253038.7 -0.00038854283 5.2126316e-05 7.384221e-05 
  344000    2.6034682 0.0023694435    279726.26    1257474.1 -0.00037449563 3.7514789e-05 9.7972318e-05 
  345000    2.6091103 0.0023739527    279726.26    1261832.6 -0.00041910655 3.4343055e-05 9.5865791e-05 
  346000    2.6025815 0.0023702965    279726.26    1266065.8 -0.00046192617 -8.4891177e-05 4.3304834e-05 
  347000    2.6059232 0.0023720474    279726.26    1270346.2 -0.00045300915 -0.00010740659 3.8778344e-05 
  348000      2.60329 0.0023693241    279726.26    1274555.2 -0.0005553345 -0.00010187333 -3.7531332e-05 
  349000    2.6076716 0.0023749446    279726.26    1278744.1 -0.00049516294 -8.1258227e-05 -0.00012290628 
  350000    2.6089312 0.0023745035    279726.26    1282851.9 -0.00044123868 -7.6039788e-05 -0.00013828417 
  351000    2.6114304 0.0023657018    279726.26    1286986.7 -0.00037529691 -7.237655e-05 -0.00011397373 
  352000    2.6079885 0.0023682891    279726.26    1291150.7 -0.00041906005 -8.3641252e-05 -7.3630018e-05 
  353000     2.606832 0.0023844658    279726.26    1295332.9 -0.00032107062 0.00013960429 6.1388327e-05 
  354000    2.6056083 0.0023713621    279726.26    1299597.4 -0.00024263239 -2.5266628e-05 -3.3517989e-05 
  355000    2.6080253 0.0023631511    279726.26    1303814.7 -0.00026658107 -3.5941778e-06 -4.1203921e-05 
  356000    2.6103571 0.0023976049    279726.26    1308069.9 -0.00029913677 6.9645798e-05 -7.9402196e-05 
  357000    2.6026072 0.0024045104    279726.26    1312409.2 -0.00021259563 -3.0637502e-05 0.00012994148 
  358000    2.6043493 0.0023677175    279726.26    1316725.3 -0.00021049184 -7.1662301e-05 0.00012471879 
  359000    2.6032335  0.002369352    279726.26    1321078.9 -0.00018858898 -6.523385e-05 0.00015631615 
  360000    2.6104961 0.0023644183    279726.26    1325396.9 -0.00020339792 -9.3809839e-05 9.8292442e-05 
  361000     2.604938 0.0023667936    279726.26    1329543.1 -4.345448e-05 -0.00017254692 8.017099e-05 
  362000    2.6073234 0.0023716994    279726.26    1333539.6 -0.00010176909 -0.00019865892 8.1561508e-06 
  363000    2.6055538 0.0023653278    279726.26    1337452.8 -8.9280401e-05 -0.00018080864 2.9755602e-05 
  364000    2.6054972 0.0023689397    279726.26    1341426.3 -0.00010345262 -0.00019472344 -2.144498e-05 
  365000     2.599325 0.0024268778    279726.26    1345453.2 -3.0209691e-05 -0.00013192042 0.00015341455 
  366000    2.6039714 0.0023681129    279726.26    1349515.2 -0.00012755826 -8.3179353e-05 -7.0077768e-05 
  367000    2.6051591 0.0023690244    279726.26    1353445.7 -7.0824146e-05 -0.00014114509 -0.00015799118 
  368000    2.6039721 0.0023678504    279726.26    1357359.4 -4.1484809e-05 -0.00015856493 -0.00011967696 
  369000    2.6047605 0.0023687442    279726.26    1361367.7 -2.2226542e-05 -0.00012825641 -9.4665367e-05 
  370000    2.6042067  0.002367296    279726.26    1365461.8 -6.2728139e-05 -0.00013297121 -9.432676e-05 
  371000    2.6072157 0.0023629755    279726.26    1369604.3 -8.1511255e-05 -0.00013682374 -0.00012799057 
  372000    2.6042712 0.0023677908    279726.26    1373688.6 -6.4267881e-05 -0.00016031937 -0.00010733372 
  373000    2.6030779  0.002369517    279726.26    1377787.9 -7.3293121e-05 -7.072024e-05 -0.00010879025 
  374000    2.6104302  0.002362528    279726.26    1381893.1 -7.4828979e-05 -0.00010387814 -0.00010477934 
  375000    2.6076662 0.0023885138    279726.26    1385965.1 -3.803072e-05 6.0072814e-06 -0.00015568885 
  376000    2.6039314 0.0023685266    279726.26    1390133.3 -0.00015382159 -0.00014931086 -0.0001514648 
  377000    2.6063208 0.0023654065    279726.26    1394386.1 -0.00018870784 -0.00011775485 -0.00016262116 
  378000    2.6081956 0.0023660031    279726.26    1398683.6 -0.000233212 -7.9129301e-05 -0.00017744348 
  379000    2.6091245 0.0023677767    279726.26    1402826.7 -0.00019925149 -9.2732967e-05 -0.000146063 
  380000    2.6062377 0.0024041028    279726.26    1407008.4 -9.7396788e-05 -0.00010703273 -9.2071957e-05 
  381000    2.6054424 0.0023838718    279726.26    1411191.5 -0.00018629278 -0.00013761284 -0.00012149388 
  382000     2.609071 0.0023875121    279726.26      1415316 -0.00017198476 -0.00015290848 -0.00017244659 
  383000    2.6103849 0.0023646952    279726.26    1419455.5 2.1682013e-05 3.632728e-05 -0.0001534762 
  384000    2.6099961 0.0023632268    279726.26    1423646.7 -1.8676385e-05 2.7664563e-05 -0.00015066258 
  385000    2.6088931 0.0023721766    279726.26    1427799.7 0.00016819109 3.733931e-06 -0.00013018941 
  386000     2.605289 0.0023702981    279726.26    1431895.7 0.0001836227 3.5352781e-05 -0.00012967448 
  387000    2.6057405 0.0023680826    279726.26    1435933.8 0.00026075014 0.00011275801 -0.00015031201 
  388000    2.6077939 0.0023658877    279726.26    1439843.4 0.00028850771 0.00013227252 -0.00010798944 
  389000    2.6038245 0.0023873601    279726.26    1443793.5 0.00021276577 0.00019347955 -0.00011147057 
  390000    2.6043531 0.0023675211    279726.26    1447784.5 0.00028023262 0.00017193294 -7.6493619e-05 
  391000    2.6029152 0.0023697171    279726.26    1451763.6 0.00026798666 0.00016581338 -6.6144099e-05 
  392000    2.6026935 0.0023699673    279726.26    1455754.9 0.00026868623 0.00012704826 -4.5382707e-05 
  393000    2.6086824 0.0023750573    279726.26    1459674.8 0.00034824461 0.00010270574 -2.0854553e-05 
  394000    2.6048966  0.002366641    279726.26    1463534.1 0.00032685373 7.017609e-05 -7.7487196e-06 
  395000    2.6073781 0.0023758515    279726.26    1467390.4 0.00033503076 4.8084121e-05 -6.213518e-05 
  396000    2.5992119 0.0024295421    279726.26    1471231.4 0.00044135723 0.00011680761 -0.00010199982 
  397000    2.6026721 0.0023696508    279726.26    1475115.9 0.00026282237 5.4884649e-05 -5.0625646e-05 
  398000        2.607 0.0023639221    279726.26    1479041.4 0.00026508337 8.7293502e-05 -0.00012576556 
  399000    2.6016286 0.0024385718    279726.26    1482989.3 0.00044412253 9.0629865e-05 -4.6943061e-05 
  400000    2.6053646 0.0023795138    279726.26    1486957.1 0.00028328047 -7.8675973e-06 -9.2907002e-05 
  401000    2.6054195  0.002386143    279726.26    1490917.7 0.00026108874 -6.5988573e-05 -0.00014851906 
  402000    2.6057889 0.0023650964    279726.26    1494855.2 0.00016152847 -3.3977967e-06 -0.00027977126 
  403000    2.6039404 0.0023686139    279726.26    1498817.7 0.00017816092 1.8890645e-05 -0.0002427348 
  404000      2.60465  0.002367273    279726.26    1502840.7 0.00022024677 2.0518527e-05 -0.00024217652 
  405000    2.6035436 0.0023684721    279726.26      1506857 0.00018095144 -8.2159231e-05 -0.00016111072 
  406000    2.6058628 0.0023780223    279726.26    1510863.1 0.00016261915 -3.314028e-05 -0.00024789476 
  407000    2.6052498  0.002408182    279726.26    1514875.1 0.00010798055 0.00011285827 -0.00027909425 
  408000    2.6079011 0.0023624813    279726.26    1518777.1 0.00018930778 1.711958e-05 -0.00024404345 
  409000    2.6028733 0.0023694765    279726.26    1522701.7 0.00017086148 4.5536203e-05 -0.00024718072 
  410000    2.6055863 0.0023842319    279726.26    1526599.4 0.00022937886 7.1450258e-06 -0.00019231514 
  411000    2.6043594 0.0023688193    279726.26      1530470 0.0001451127 6.808723e-05 -0.0002271641 
  412000    2.6022557 0.0023713196    279726.26    1534403.2 0.00017279663 6.6628801e-05 -0.00019256016 
  413000    2.6055542 0.0023673341    279726.26    1538355.8 0.00016297232 7.8443091e-05 -0.00017612806 
  414000    2.6060908 0.0023650093    279726.26    1542329.8 0.00018563064 8.3387741e-05 -0.00015285708 
  415000    2.5906429 0.0024757518    279726.26    1546268.3 0.00021532591 1.0485184e-05 -0.00013877634 
  416000    2.6062857  0.002364529    279726.26    1550326.1 0.00022814432 1.357711e-05 -0.00021711495 
  417000    2.6006415   0.00241142    279726.26    1554442.5 0.00031119029 0.0002215373 -0.00018569806 
  418000    2.6086812 0.0023640482    279726.26    1558507.2 0.00024831157 9.1071387e-05 -7.7124847e-05 
  419000    2.6054132 0.0023658626    279726.26      1562585 0.00023719212 8.5066001e-05 -0.00019870115 
  420000    2.6035374 0.0023693017    279726.26      1566656 0.00026380709 7.6187067e-05 -0.0001982679 
  421000    2.6062821 0.0023694501    279726.26    1570892.2 0.00028241777 -1.5095553e-05 -0.00019350303 
  422000    2.6098015 0.0023704529    279726.26    1575113.3 0.00028353003 -3.4893376e-05 -0.00016111336 
  423000    2.6074798 0.0023771622    279726.26    1579196.3 0.00029644501 -8.7674713e-06 -3.564275e-05 
  424000    2.6062138 0.0023694453    279726.26    1583156.5 0.0003068945 -3.9818921e-05 -2.8966985e-05 
  425000    2.6048716 0.0023678542    279726.26    1587015.5 0.00025603026 -3.2013981e-05 -0.00015028118 
  426000    2.6028527 0.0023695764    279726.26    1590827.5 0.00017511489 -8.3633587e-05 -0.00010631758 
  427000    2.6024872 0.0023703233    279726.26    1594596.7 0.00016244024 -3.4679309e-05 -0.00017065251 
  428000    2.6034254 0.0023692674    279726.26    1598351.4 0.0001644249 -8.1404269e-05 -0.00018355053 
  429000    2.6027116 0.0023702976    279726.26    1602162.9 0.00016966688 -8.8241174e-05 -0.0001711506 
  430000    2.6108178 0.0023689313    279726.26    1606015.1 0.00020205016 -0.00013771987 -0.00019173389 
  431000    2.6024054 0.0023705821    279726.26    1609853.1 0.00015343656 -5.271713e-05 -0.00017961833 
  432000    2.6065553  0.002365223    279726.26    1613728.9 0.00014611812 -0.00014432986 -0.0001608061 
  433000    2.6037818 0.0023682746    279726.26    1617711.9 0.00018646851 -0.0001602259 -0.00018820271 
  434000    2.6087325 0.0023832613    279726.26    1621830.7 0.00021034033 -0.00015972666 -0.00014048672 
  435000    2.6025562 0.0023699631    279726.26    1626010.2 0.00024274603 -0.00016307581 -0.00028899504 
  436000    2.6045294 0.0023695812    279726.26    1630251.6 0.00020803584 -0.00016706501 -0.00029506065 
  437000    2.6043096 0.0023676177    279726.26    1634550.9 0.00019473759 -0.00015414292 -0.00028362307 
  438000    2.6058689 0.0023666246    279726.26    1638877.8 0.00015600425 -0.00019017518 -0.00027687313 
  439000     2.612704 0.0023822797    279726.26    1643281.4 0.00027258676 -0.00013591313 -0.00029033524 
  440000    2.6043603 0.0023700801    279726.26    1647636.1 0.00017990011 -5.7374465e-05 -0.00028864839 
  441000    2.6031284 0.0023695085    279726.26    1652045.1 0.00017184807 -4.0952713e-05 -0.00030470657 
  442000    2.6029381  0.002369441    279726.26    1656523.2 0.00027098889 -5.3522762e-05 -0.00033084444 
  443000    2.6064328 0.0023728901    279726.26    1660894.7 0.00017873652 -0.00010366578 -0.00043012934 
  444000    2.6039821 0.0023674412    279726.26      1665136 0.00016707838 -0.00016631522 -0.00046852693 
  445000    2.6029086 0.0023701512    279726.26    1669550.5 0.00027706746 -0.00019041691 -0.00049489751 
  446000    2.6026003 0.0023700186    279726.26    1674059.3 0.00027065333 -0.00012776624 -0.00037594045 
  447000    2.5972807 0.0024396664    279726.26    1678635.6 0.00023566946 -0.00051188027 -0.00046953333 
  448000    2.6060296 0.0023655224    279726.26    1683216.7 0.00025742189 -0.0001007073 -0.0003383949 
  449000    2.6079842 0.0023637084    279726.26    1687745.6 0.00015973585 -0.00024475608 -0.00028446899 
  450000    2.6022012   0.00237107    279726.26      1692370 4.3944511e-05 -0.00024655938 -0.00036123537 
  451000    2.6031996 0.0023698912    279726.26    1697076.7 4.1662586e-05 -0.00026120206 -0.00033680098 
  452000     2.608151 0.0023662609    279726.26    1701827.3 2.1576634e-05 -0.00022158672 -0.00032214215 
  453000    2.6047851 0.0023678439    279726.26    1706577.4 3.9399633e-05 -0.0002405086 -0.00038903602 
  454000    2.6048776 0.0023674053    279726.26    1711418.7 7.415103e-05 -0.00022677541 -0.00039285797 
  455000    2.6044845 0.0023670312    279726.26    1716320.4 2.1505187e-05 -0.0001317833 -0.00045737117 
  456000    2.6062477 0.0023660603    279726.26    1721252.5 6.5709052e-05 -0.00018388264 -0.00049352993 
  457000    2.6036155 0.0023683461    279726.26    1726218.5 4.3271082e-05 -0.00011271142 -0.00045498647 
  458000     2.602773 0.0023699971    279726.26    1731129.9 8.442313e-05 -0.00013619197 -0.00041953782 
  459000    2.6056215 0.0023697722    279726.26    1735995.3 -9.7969887e-08 -0.00017122524 -0.00043121447 
  460000    2.6073346 0.0023666302    279726.26    1740719.1 2.093384e-05 -0.00025574125 -0.00039159217 
  461000    2.6057477 0.0023663542    279726.26    1745393.8 3.1567828e-05 -0.00021967747 -0.00043939742 
  462000    2.6038327 0.0023679263    279726.26    1750078.5 0.00015279243 -0.00016697563 -0.00045341412 
  463000    2.6025744 0.0023704366    279726.26    1754596.2 0.00014972691 -0.00019672089 -0.00038094689 
  464000    2.6022305 0.0023712728    279726.26      1759105 0.00014956418 -0.00020223125 -0.0003789641 
  465000    2.6093685 0.0023803837    279726.26    1763654.2 7.6431618e-05 -0.00025248812 -0.00031654636 
  466000     2.608419 0.0023730992    279726.26    1768058.4 3.9251581e-05 -0.00015365422 -0.00030779391 
  467000    2.6051113 0.0023770843    279726.26    1772521.6 6.7156346e-05 -0.00014061618 -0.00033391342 
  468000    2.6093563 0.0023668449    279726.26    1776925.5 0.00011615988 -0.00016251593 -0.000264299 
  469000    2.6081178  0.002370236    279726.26    1781198.1 0.00012781486 -0.00012256639 -0.00032886458 
  470000    2.6071794  0.002364858    279726.26    1785514.5 0.00011276737 -0.00010051308 -0.00024493886 
  471000    2.6055111 0.0023656027    279726.26    1789858.2 0.00014658319 -0.00017129117 -0.00026989953 
  472000    2.6022331 0.0023711498    279726.26    1794276.3 0.00010803129 -0.00021594846 -0.00035599012 
  473000    2.6047754 0.0023755801    279726.26    1798741.3 0.00013305446 -0.00022635786 -0.00039590653 
  474000    2.6042664  0.002368387    279726.26      1803255 0.00014565677 -0.00025602181 -0.0003796745 
  475000    2.6052558 0.0023665014    279726.26    1807836.3 0.00014625454 -0.00027139537 -0.00037127099 
  476000    2.6127021 0.0023663285    279726.26    1812455.2 0.00015515034 -0.00027210545 -0.00035714795 
  477000    2.6070022 0.0023706927    279726.26    1817104.9 0.00017022205 -0.00028024756 -0.00047572071 
  478000    2.6022403 0.0023710212    279726.26    1821787.3 0.00025590122 -0.00029349091 -0.0004227087 
  479000    2.6059827 0.0023660094    279726.26    1826538.2 0.00024972249 -0.00028446579 -0.00041878062 
  480000    2.6043567 0.0023669525    279726.26    1831418.8 0.00029037559 -0.00027954003 -0.00039275676 
  481000    2.6038554 0.0023868873    279726.26    1836380.9 0.00026162877 -0.00033259107 -0.00040585545 
  482000    2.6025888 0.0023705391    279726.26    1841466.9 0.00028588413 -0.00027961994 -0.00037998901 
  483000       2.6033 0.0023688451    279726.26    1846653.1 0.00030125345 -0.00027555628 -0.00039871546 
  484000    2.6062753 0.0023701082    279726.26      1851793 0.00030080093 -0.00036576861 -0.00043839552 
  485000    2.6039688 0.0023863452    279726.26    1857003.7 0.00031224164 -0.000360343 -0.00043207809 
  486000    2.6079093  0.002383382    279726.26    1862198.6 0.00038501211 -0.00036120647 -0.00047667481 
  487000    2.6052645   0.00237436    279726.26    1867428.1 0.00043021024 -0.00039518496 -0.0005530302 
  488000    2.6020823 0.0023714107    279726.26    1872584.6 0.00021621904 -0.00036814314 -0.00052638846 
  489000    2.6051308 0.0023702139    279726.26    1877648.1 0.00020552963 -0.00037210123 -0.00051406454 
  490000    2.6023418 0.0023707279    279726.26    1882680.6 0.00012400207 -0.00031377515 -0.00052436955 
  491000    2.6064565 0.0024033268    279726.26    1887673.8 -7.1005304e-05 -0.00027009105 -0.0003967494 
  492000    2.6047391 0.0023847896    279726.26    1892643.8 -5.7001215e-05 -0.00023616374 -0.0004594813 
  493000    2.6065005 0.0023654936    279726.26    1897624.7 -5.8972582e-05 -0.00019054082 -0.00047602091 
  494000    2.6038665 0.0023687278    279726.26    1902631.7 4.1712524e-06 -0.00022874833 -0.00046602885 
  495000    2.6027456 0.0023704048    279726.26    1907647.8 3.7750557e-05 -0.00018706836 -0.00046739124 
  496000    2.6025216 0.0023704249    279726.26    1912756.4 -7.7650137e-07 -0.00014716834 -0.00043904975 
  497000    2.6027617 0.0023704438    279726.26    1917864.7 1.2148539e-05 -0.00018349485 -0.00047969524 
  498000     2.604931 0.0023679256    279726.26    1922955.2 -3.859602e-05 -0.0002218617 -0.00040152714 
  499000    2.6043903  0.002367247    279726.26    1927994.2 -3.1016592e-05 -0.00016019385 -0.00026850525 
  500000    2.6024457 0.0023707811    279726.26    1932966.6 7.0299983e-05 -0.00014094306 -0.00028736518 
  501000    2.6034778   0.00236931    279726.26    1937990.7 0.00010376614 -0.0001062875 -0.00024026379 
  502000    2.6084438 0.0023674491    279726.26    1943029.1 0.00011628586 -4.9790696e-05 -0.00023516181 
  503000    2.6027385 0.0023702914    279726.26    1948086.2 0.00011387196 -5.5417599e-05 -0.00022270429 
  504000    2.6079812 0.0023709808    279726.26    1953037.3 0.00016919482 -6.4015311e-05 -0.00016408851 
  505000    2.6043297 0.0024059987    279726.26    1957824.9 0.0001937214 -5.4154804e-05 -0.00016995682 
  506000    2.6013363 0.0024401611    279726.26    1962577.1 0.00042461698 -0.00047545867 0.00038743033 
  507000    2.6034491 0.0023691003    279726.26    1967440.6 0.0002168452 -0.00017900209 1.6998656e-05 
  508000    2.6042221 0.0023841456    279726.26    1972544.8 0.00021947965 -0.00010542542 2.312133e-05 
  509000    2.6071814 0.0023676709    279726.26    1977725.5 0.00018451993 -7.6500625e-05 4.3555589e-06 
  510000    2.6032244 0.0023692288    279726.26    1982910.8 0.0001793464 -9.5310611e-05 -6.015121e-06 
  511000    2.6043281 0.0023682508    279726.26    1988145.5 0.00016767353 -8.7168121e-05 -3.2692848e-06 
  512000       2.6087 0.0023729781    279726.26      1993453 0.00011193761 -2.3510628e-05 1.0161073e-06 
  513000    2.6067843 0.0023713658    279726.26    1998655.1 8.5184247e-05 -6.573947e-05 4.7693508e-05 
  514000    2.6049762 0.0023663938    279726.26    2003848.5 6.6629681e-05 -3.4899018e-05 4.8212965e-05 
  515000    2.6053188 0.0023663784    279726.26    2009043.9 4.0491576e-05 -2.6538349e-06 4.1148647e-05 
  516000     2.603834 0.0023680208    279726.26    2014238.5 5.5977941e-05 3.1923869e-05 7.7780898e-05 
  517000    2.6049485 0.0023707358    279726.26    2019478.7 5.2236021e-05 1.5481508e-05 6.0917102e-05 
  518000    2.6073764  0.002378657    279726.26    2024743.9 -3.1904218e-05 1.9623887e-05 8.279222e-05 
  519000    2.6039674 0.0023680542    279726.26    2029981.4 6.7443147e-05 0.00025522447 6.4001533e-05 
  520000      2.60384 0.0023675741    279726.26    2035145.9 0.00010165419 0.00022950789 9.2737422e-05 
  521000     2.603831 0.0023682304    279726.26    2040507.9 0.00012308991 0.00020507361 0.00011137779 
  522000    2.6034783  0.002414749    279726.26    2045899.8 -4.9538606e-05 0.00011263694 0.00012222979 
  523000    2.6042916 0.0023681655    279726.26    2051285.3 -5.2506788e-05 0.00021734146 0.00015650845 
  524000    2.6068083 0.0023663723    279726.26    2056626.8 -3.7300065e-05 0.00022001641 0.00013870606 
  525000    2.6035546 0.0023687445    279726.26    2062053.4 -8.9347394e-05 0.00018836852 0.00018853489 
  526000    2.6119381 0.0023668657    279726.26    2067509.4 -9.6286375e-05 0.00021996028 0.00018066393 
  527000     2.605918 0.0023693682    279726.26      2073004 -0.00013339079 0.00020275933 0.00018967501 
  528000    2.6057042 0.0023742345    279726.26    2078593.4 -0.00015054577 0.00013545205 0.00013155703 
  529000    2.6023521 0.0023708241    279726.26    2084027.1 -0.00017970534 0.00013464791 0.00020987763 
  530000    2.6084785 0.0023648905    279726.26    2089341.5 -0.00022306718 0.00017770331 0.00020377119 
  531000    2.6026303 0.0023703508    279726.26      2094716 -0.00019995981 0.00017305019 0.00018321543 
  532000    2.6039598 0.0023678826    279726.26    2100187.2 -0.00026110755 0.00024300181 0.00020909909 
  533000    2.6030771 0.0024155739    279726.26    2105637.9 -0.00033326049 0.00034167151 0.00013646537 
  534000    2.6077421 0.0023761148    279726.26    2110904.9 -0.00044854597 0.00040739137 0.00016089642 
  535000    2.6027138 0.0023701872    279726.26    2115982.2 -0.00043986535 0.00042255215 0.0001357408 
  536000    2.6062324 0.0023753541    279726.26    2120945.8 -0.0001982137 0.00022695158 0.00022431617 
  537000    2.6027583 0.0023698829    279726.26    2125743.4 -0.00012428892 0.00026106625 0.00018624151 
  538000    2.6043682 0.0023679355    279726.26    2130522.3 -8.565399e-05 0.00030352589 9.5439472e-05 
  539000    2.6073126 0.0023639691    279726.26    2135352.5 -9.925957e-05 0.00031644106 7.5533647e-05 
  540000    2.6070385 0.0024005583    279726.26    2140191.4 -7.9443795e-05 0.00029206139 4.7929312e-05 
  541000    2.6076176  0.002367747    279726.26    2145012.9 -0.00010678545 0.0002987792 0.00010943137 
  542000    2.6038963 0.0023680136    279726.26      2149882 -9.8469541e-05 0.00030122731 4.4752924e-05 
  543000    2.6062853 0.0023672721    279726.26      2154849 -0.00020569605 0.00031014603 8.5496332e-05 
  544000    2.6048703 0.0023699402    279726.26    2159861.4 -0.00022439792 0.00034010008 6.8001467e-05 
  545000     2.602372 0.0023705408    279726.26      2164808 -0.00017494183 0.00036274998 8.7363667e-05 
  546000    2.6061045 0.0023675401    279726.26    2169666.3 -0.00019435996 0.00034032357 0.00011458555 
  547000    2.6056072 0.0023681052    279726.26    2174492.6 -0.00013874783 0.00028388864 0.00014356662 
  548000     2.604847 0.0023685223    279726.26    2179377.4 -0.00015981921 0.00026289779 0.00016471595 
  549000    2.6032604 0.0024037094    279726.26    2184281.3 -0.00016278961 0.00041173771 0.00017257102 
  550000    2.6033577 0.0023692943    279726.26    2188992.2 -0.00019164437 0.00040121995 0.00025077246 
  551000    2.6030006 0.0023694878    279726.26    2193558.8 6.8688115e-05 0.0002716559 0.0002106411 
  552000    2.6044621 0.0023879881    279726.26    2197891.5 7.7730839e-05 0.00030720958 0.00011587496 
  553000    2.6094401 0.0023693973    279726.26    2202180.6 4.9441758e-05 0.00034011563 5.7016106e-05 
  554000    2.6036415 0.0023872537    279726.26      2206520 2.971571e-06 0.00038585275 4.5095279e-05 
  555000    2.6035312 0.0023689628    279726.26    2210921.7 -1.7486192e-05 0.00038970916 6.8193972e-05 
  556000    2.6098206 0.0023776948    279726.26    2215359.9 -4.9067763e-05 0.00045268343 5.9967073e-05 
  557000    2.6029553 0.0023694217    279726.26      2219910 -8.8100607e-06 0.00044527924 5.7339692e-05 
  558000    2.6033475 0.0023690774    279726.26    2224522.8 -2.8075627e-06 0.00045108385 4.7259209e-05 
  559000    2.6062727 0.0023658163    279726.26    2229147.5 1.564728e-05 0.00047934677 8.562613e-05 
  560000    2.6039186 0.0023683095    279726.26    2233680.4 0.00015454044 0.00040460763 8.7967436e-06 
  561000    2.6120517 0.0023710369    279726.26    2237914.7 0.00012745558  0.000400286 -2.1014428e-05 
  562000    2.6039964 0.0023687467    279726.26    2242076.8 7.2852253e-05 0.00037702579 0.00012038437 
  563000    2.6031254 0.0023698686    279726.26    2246408.4 8.2252453e-06 0.00032698668 0.00011014419 
  564000    2.6029709 0.0023945048    279726.26    2250779.9 -0.00015606927 0.00062805143 5.9736633e-05 
  565000    2.6023001 0.0023707819    279726.26    2255166.2 -0.0001536904 0.00057157947 6.5002484e-05 
  566000    2.6057137 0.0023653972    279726.26    2259587.4 -0.00011314927 0.00064352988 9.1120359e-05 
  567000    2.6074396 0.0023701285    279726.26    2263861.8 -0.00011369839 0.00064560355 5.9396538e-05 
  568000    2.6025754 0.0023702036    279726.26    2268056.4 -8.2194568e-05 0.00062333988 1.4242559e-05 
  569000    2.6032674 0.0023695656    279726.26    2272168.7 -0.00013050549 0.0005591984 2.9232015e-05 
  570000    2.6048984 0.0023729153    279726.26    2276272.2 -9.375724e-05 0.00055815312 2.003808e-05 
  571000     2.604288 0.0023681909    279726.26    2280359.7 -9.9882137e-05 0.00056193762 6.4693716e-06 
  572000    2.6058512 0.0023676645    279726.26    2284453.3 -8.7257075e-05 0.00054271896 5.9958129e-06 
  573000    2.6026355 0.0023697245    279726.26    2288552.9 -6.1486193e-05 0.00061095551 -1.2993433e-05 
  574000    2.6050271 0.0023703413    279726.26    2292588.5 -5.4345857e-05 0.00061185329 6.9638155e-06 
  575000     2.607385 0.0023636024    279726.26    2296653.3 -0.00018680614 0.00049509825 -3.7104825e-05 
  576000    2.6024808 0.0023705748    279726.26    2300747.8 -0.00013711917 0.00050101243 -5.9741489e-05 
  577000    2.6039612 0.0023677096    279726.26    2304910.5 -0.00022023321 0.00049968484 -6.5866278e-05 
  578000    2.6042025 0.0023672648    279726.26    2309145.6 -0.00019139758 0.00048231906 -8.5088107e-05 
  579000     2.602822 0.0023699242    279726.26    2313432.7 -0.00015658593 0.00043609749 -9.6949703e-05 
  580000     2.605801 0.0023797097    279726.26    2317801.3 -9.2493376e-05 0.00031671512 -3.038869e-05 
  581000    2.6065634 0.0023813343    279726.26      2322338 -0.00012255061 0.00036133682 -6.392092e-05 
  582000    2.6040994 0.0023678742    279726.26    2326924.7 -0.00014819784 0.00042618969 -0.00010236607 
  583000    2.5918566   0.00246521    279726.26    2331575.6 -0.00011445274 0.0005086038 9.6011495e-05 
  584000    2.6032113 0.0023681447    279726.26    2336199.7 -0.00015223715 0.00031888004 -5.1162351e-05 
  585000    2.6082119 0.0023700112    279726.26    2340899.9 -0.00011976194 0.00034604036 -7.473332e-05 
  586000     2.607493  0.002365244    279726.26    2345712.7 -0.00013769649 0.00021827334 2.6976293e-05 
  587000    2.6055624   0.00236683    279726.26    2350585.5 -0.00010445117 0.0002295953 3.2529159e-06 
  588000    2.6051514 0.0023686173    279726.26    2355374.8 -0.00010605428 0.00027622923 3.249276e-05 
  589000    2.6080044 0.0023663721    279726.26    2360197.6 -6.0918952e-05 0.00030524516 0.00011403425 
  590000    2.6083758 0.0023616718    279726.26    2364926.4 1.5332112e-05 0.00032214744 6.5934729e-05 
  591000     2.605951 0.0023792568    279726.26    2369626.2 -6.2493691e-06 0.00030453861 6.2389019e-05 
  592000    2.6093732 0.0023649471    279726.26    2374379.9 -1.0126429e-06 0.0002632182 0.00011817361 
  593000    2.6023655 0.0023706556    279726.26      2379233 1.5496833e-05 0.00025338103 0.00012167048 
  594000    2.6068163 0.0023699089    279726.26    2384106.1 -5.0494371e-05 0.00026388667 7.3443576e-05 
  595000    2.6024267 0.0023705592    279726.26    2389021.5 -2.1612239e-05 0.00021992078 7.0360635e-05 
  596000    2.6047906 0.0023667726    279726.26    2393890.2 -4.0417971e-05 0.0002798815 -4.3066107e-05 
  597000    2.6047058 0.0023702919    279726.26    2398738.9 -6.3462209e-05 0.00023434723 7.6134607e-05 
  598000    2.6042978 0.0023671246    279726.26    2403567.3 -1.9960093e-05 0.00024607317 0.0001291082 
  599000    2.6044255 0.0023797506    279726.26      2408453 1.1173466e-05 0.00024786086 0.0001295942 
  600000    2.6062311  0.002373859    279726.26    2413339.3 7.6047404e-05 0.00026959555 0.00011602269 
  601000     2.608392 0.0023613147    279726.26    2418146.3 0.0002052466 0.00038812119 2.2961688e-05 
  602000    2.6084097 0.0023617907    279726.26    2422833.9 0.00018990821 0.00033470682 4.8356618e-05 
  603000    2.6025816 0.0023702978    279726.26    2427505.2 0.00015022438 0.00033474921 2.8109392e-05 
  604000    2.6047304 0.0023672723    279726.26      2432113 0.0001694399 0.00038710987 1.1144911e-05 
  605000    2.6108673  0.002375349    279726.26    2436624.8 0.00017824345 0.00033547215 -2.6378527e-06 
  606000    2.6071087 0.0023671458    279726.26    2441066.4 5.6478566e-05 0.00023019714 3.5509245e-05 
  607000    2.6053331 0.0023727935    279726.26    2445516.8 5.5086191e-05 0.00023165193 4.6503187e-05 
  608000    2.6038349 0.0023685887    279726.26    2450040.7 -1.1491185e-05 0.00023333541 0.0001100093 
  609000    2.6042666 0.0023675806    279726.26    2454398.2 1.1224339e-05 0.00022653411 0.00016619095 
  610000    2.6021988 0.0023710739    279726.26      2458865 -0.00016091482 0.00017812108 0.00025545534 
  611000    2.6030356 0.0024063715    279726.26    2463384.7 -7.7968772e-05 0.00022999075 0.00027157975 
  612000    2.6047782  0.002367549    279726.26    2467885.7 1.9194217e-05 0.00033997809 0.00035934956 
  613000    2.6051089 0.0023674489    279726.26    2472139.2 -1.7187968e-05 0.00029418775 0.00033009778 
  614000    2.6034818 0.0023688639    279726.26    2476405.3 8.6498961e-06 0.00037468709 0.00035043525 
  615000    2.6089731 0.0023722652    279726.26    2480658.5 5.833326e-05 0.00035346453 0.00031960843 
  616000    2.6064999 0.0023869603    279726.26    2484830.8 -5.1873042e-06 0.00029647937 0.00032963337 
  617000    2.6062873 0.0023918796    279726.26    2488977.5 -0.00016456452 0.00040199628 0.00025582817 
  618000    2.6050059 0.0023719452    279726.26    2493184.5 -0.00019786089 0.00037270833 0.00029716648 
  619000    2.6048053 0.0024048599    279726.26    2497535.4 -0.00012047196 0.00026956407 0.00027932581 
  620000    2.6053753 0.0023763837    279726.26    2501960.1 -0.00017133368 0.00039972343 0.00032548963 
  621000    2.6103318 0.0023686806    279726.26    2506443.9 -0.00015656628 0.00038446218 0.00027131135 
  622000    2.6090107 0.0023635036    279726.26    2510947.5 -0.00014316878 0.00040035725 0.00025834576 
  623000    2.6026384 0.0024000721    279726.26    2515481.8 -0.00015004327 0.00045181363 0.00032046879 
  624000    2.6060124  0.002365339    279726.26      2520053 -0.00019818867 0.00035259873 0.00039109634 
  625000    2.6049167 0.0023683584    279726.26    2524625.3 -0.00021058983 0.00024042703  0.000295751 
  626000     2.602472 0.0023705868    279726.26      2529159 -0.00013990488 0.00028324551 0.00026957265 
  627000    2.6041889 0.0023697197    279726.26    2533713.5 -0.00011846306 0.00033087058 0.00021024941 
  628000    2.6036674 0.0023686981    279726.26    2538200.6 5.2869456e-05 0.00030008984 0.00014299559 
  629000    2.6045218 0.0023679016    279726.26    2542559.3 7.0464869e-05 0.00015653529 -1.989431e-05 
  630000    2.6054124 0.0023672487    279726.26    2546927.7 5.534148e-05 0.00014308286 1.7883236e-05 
  631000    2.6048241 0.0023694636    279726.26    2551373.7 1.0561788e-05 0.00014761651 2.857135e-05 
  632000    2.6046011 0.0023668915    279726.26    2555815.6  5.37107e-06 0.00016048265 3.6321472e-05 
  633000    2.6040646 0.0023676988    279726.26    2560289.7 -9.0539309e-06 0.00019388892 7.4465798e-05 
  634000    2.6055052 0.0023665899    279726.26    2564840.4 7.0510408e-06 0.00024143912 3.3857344e-05 
  635000    2.6033918 0.0023684171    279726.26    2569504.2 -0.00019775668 0.00028652482 -0.00011053383 
  636000    2.6050711 0.0023825273    279726.26    2574313.1 -0.00016455027 0.00027093239 -5.9768743e-05 
  637000    2.6038716 0.0023686253    279726.26    2578878.7 -0.0001669881 0.00026109166 2.2160214e-05 
  638000    2.6020762 0.0023714121    279726.26      2583345 -0.00017854211 0.00024394809 5.3058932e-06 
  639000    2.6031704 0.0023692214    279726.26    2587621.1 -0.00014261198 0.00020381654 6.3776647e-05 
  640000    2.6074265 0.0023634006    279726.26    2591890.1 -0.00019654621 0.00016566982 7.3167288e-05 
  641000    2.6053338 0.0023766571    279726.26      2596095 -0.00023168093 0.00023958995 -2.3258414e-05 
  642000    2.6106959 0.0023677626    279726.26    2600402.3 -0.00025635053 0.00020339258 2.3767627e-06 
  643000    2.6060252 0.0024064097    279726.26    2604660.4 -0.00029891104 0.00023668749 -4.8755055e-05 
  644000    2.6068896 0.0023658056    279726.26    2608813.9 -0.00023747018 0.00036600328 0.00021277238 
  645000    2.6087393 0.0023727406    279726.26    2612873.6 -0.00020499888 0.00029112656 0.00025015763 
  646000    2.6068431 0.0023679196    279726.26    2616850.5 -0.00031241179 0.00027772617 0.00013370726 
  647000    2.6089753 0.0023658822    279726.26    2620867.5 -0.00029883009 0.00025097501 0.00013125471 
  648000    2.6080438 0.0023871592    279726.26    2624924.6 -0.00021073062 0.00034450993 6.2137802e-05 
  649000    2.6028765 0.0023696909    279726.26    2629175.1 -0.00030232123 0.00020312656 0.00010694506 
  650000    2.6004938  0.002411971    279726.26    2633506.3 -0.00022364847 0.00022636342 0.00029201272 
  651000    2.6068806 0.0023651413    279726.26    2637822.8 -0.00034863878 0.00023737472 5.562486e-05 
  652000    2.6065728 0.0023653995    279726.26    2642083.8 -0.00029075229 0.00024754959 -8.4728619e-05 
  653000    2.6078947 0.0023671496    279726.26    2646245.1 -0.0002478947 0.0001625189 -0.00015104906 
  654000    2.6045017 0.0023679936    279726.26    2650418.5 -0.00024351419 0.00011053791 -0.00017525129 
  655000    2.6044022 0.0023675472    279726.26    2654583.1 -0.00027126031 6.2422512e-05 -0.00018121789 
  656000     2.607868 0.0023794099    279726.26    2658752.4 -0.0003289352 6.6631209e-05 -0.00016995051 
  657000    2.6075048 0.0023696325    279726.26    2662983.4 -0.00025451636 6.6304182e-05 -0.00017748652 
  658000    2.6063075  0.002367441    279726.26    2667325.5 -0.00013632817 7.3347073e-05 -0.00022385856 
  659000    2.6042321 0.0023670225    279726.26    2671899.6 -5.3735939e-05 2.9113214e-05 -0.00023992933 
  660000    2.6051654 0.0023656997    279726.26    2676503.7 -4.5323442e-05 2.5775936e-05 -0.00023591669 
  661000    2.6060327 0.0023640335    279726.26    2681051.1 -0.0001976002 0.00030970451 -0.00027603087 
  662000      2.60403 0.0023869674    279726.26      2685579 -0.00023734839 0.0002983391 -0.00025136837 
  663000    2.6051339 0.0023681327    279726.26    2690270.4 -0.0002567365 0.00031580787 -0.00024745437 
  664000    2.6049028 0.0023677359    279726.26    2695047.8 -0.00026783551 0.00036877639 -0.00025198566 
  665000    2.6036621 0.0023687079    279726.26    2699927.2 -0.00023048787 0.00035673904 -0.00022849372 
  666000    2.6050183 0.0023668918    279726.26    2704835.4 -0.00017666086 0.00046185633 -0.00015128147 
  667000    2.6036532  0.002391816    279726.26    2709743.9 -0.00019020166 0.00045939081 -0.00014939803 
  668000    2.6070722 0.0023735969    279726.26    2714666.9 -0.00031108071 0.00052419974 -0.00016384242 
  669000    2.6039448 0.0023845419    279726.26    2719505.6 -0.00027320642 0.00052905796 -0.00018818374 
  670000    2.6033455 0.0023695539    279726.26    2724365.7 -0.0002712543 0.00054201388 -0.00014136225 
  671000    2.6082052 0.0023738277    279726.26    2729273.5 -0.00028678795 0.00053129355 -9.8864284e-05 
  672000    2.6026505 0.0023701718    279726.26    2734217.7 -0.00029074282 0.00053064286 -8.7512424e-05 
  673000    2.6023273 0.0023710716    279726.26      2739198 -0.00026884739 0.00050926122 -8.7651212e-05 
  674000    2.6026402 0.0023699496    279726.26    2744298.7 -0.00028809295 0.00052100803 -9.0718718e-05 
  675000    2.6051872 0.0023780283    279726.26    2749291.2 -0.00029050355 0.00059418878 -0.00018741994 
  676000    2.6091795 0.0023685995    279726.26    2754124.1 -0.00044683051 0.00052703029 -0.00025997123 
  677000     2.611871 0.0023652813    279726.26    2758939.8 -0.00043074536 0.00049802631 -0.00025210978 
  678000    2.6088947 0.0023966478    279726.26    2763830.4 -0.00038677932 0.00039419715 -0.00023218118 
  679000    2.6058842 0.0023648869    279726.26      2768628 -0.00036999835 0.00037371321 -0.00020693467 
  680000     2.601303 0.0024223021    279726.26    2773450.5 -0.00042505734 0.00045133723 -0.00048017811 
  681000    2.6044981 0.0023681997    279726.26    2778270.1 -0.00035350649 0.00034132576 -0.00015078899 
  682000     2.607073 0.0023756604    279726.26    2783085.1 -0.0003431682 0.00033822264 -0.00021009401 
  683000    2.6055768 0.0024342404    279726.26    2787914.8 -0.00039745401 0.0003381512 -0.00017339062 
  684000    2.6071199 0.0023836997    279726.26    2792795.3 -0.00031396426 0.00026938944 -0.00027332759 
  685000    2.6061763 0.0023647973    279726.26    2797666.2 -0.00028588739 0.00030211023 -0.00019589898 
  686000    2.6066283 0.0023673772    279726.26    2802491.3 -0.00021866723 0.00032979366 -0.00011431204 
  687000    2.6031561 0.0023697305    279726.26    2807164.7 -5.349532e-05 0.00019505844 -9.1131955e-05 
  688000    2.6060835 0.0023938215    279726.26    2811875.3 -8.4413703e-05 0.00019530306 -0.00021884566 
  689000    2.6028285 0.0023703387    279726.26    2816419.5 -5.1991236e-05 0.00014179241 -0.00025137793 
  690000    2.6044928 0.0023669509    279726.26    2820981.5 -2.4936901e-05 0.0001730056 -0.00024085853 
  691000    2.6036187 0.0023688109    279726.26    2825515.2 -7.3424769e-05 0.00013074579 -0.00022663591 
  692000    2.6029106 0.0024008047    279726.26    2829858.2 -0.00012083783 -4.5651423e-05 -0.00040060125 
  693000    2.6068415 0.0023651906    279726.26      2834186 -0.00014305582 1.4607931e-05 -0.00039239129 
  694000    2.6034612 0.0023688923    279726.26    2838584.7 -8.3220332e-05 1.6638584e-05 -0.00045401071 
  695000    2.6065694  0.002376806    279726.26    2843061.4 -4.3142588e-05 4.3037819e-06 -0.00046043575 
  696000    2.6040986 0.0024126322    279726.26      2847651 0.00010433678 0.00014845945 -0.00056694427 
  697000    2.6093916 0.0023785202    279726.26    2852285.4 -8.9628796e-05 -4.0340027e-06 -0.00047476206 
  698000    2.6029844 0.0023694893    279726.26    2856975.5 -8.4680747e-05 -1.911396e-05 -0.00046446676 
  699000    2.6054556 0.0023672869    279726.26    2861638.4 -6.3481125e-05 1.6673545e-05 -0.00043938872 
  700000    2.6045596 0.0023697732    279726.26    2866280.2 5.7397025e-06 -0.00024423922 -0.00063673112 
  701000    2.6023473 0.0023705674    279726.26    2870935.6 3.2762162e-05 -0.00034349701 -0.00061367151 
  702000     2.604653 0.0023670834    279726.26    2875634.5 2.7763332e-05 -0.00031773208 -0.00058535715 
  703000    2.6036269 0.0023689674    279726.26    2880299.4 4.4192632e-05 -0.00026837053 -0.00058587798 
  704000    2.6044666 0.0023673988    279726.26    2884866.2 0.00011091465 -0.00032666595 -0.00060750642 
  705000    2.6023258 0.0023710855    279726.26    2889522.2 0.0001207849 -0.00033261264 -0.00059566446 
  706000    2.6070418 0.0023681386    279726.26    2894192.6 0.00016358209 -0.00030211639 -0.00055192046 
  707000    2.6038077 0.0023674086    279726.26    2898822.2 0.00013063313 -0.00031607189 -0.00055608218 
  708000    2.6033145 0.0023692024    279726.26    2903454.3 9.2640134e-05 -0.00031780488 -0.00052623327 
  709000     2.606253 0.0023660473    279726.26    2907919.5 2.309072e-05 -0.00028434018 -0.00043363294 
  710000    2.6051422 0.0023781998    279726.26    2912240.1 4.1543473e-05 -0.00023735539 -0.00047100299 
  711000    2.6021632 0.0023710074    279726.26    2916634.5 0.00012580672 -0.00020797845 -0.00052573136 
  712000    2.6067641 0.0023667882    279726.26    2921097.8 0.00014174393 -0.00016745651 -0.00049730381 
  713000     2.606787 0.0023685775    279726.26    2925381.2 0.00012380829 -0.00022557712 -0.00063285375 
  714000    2.6050907 0.0023726196    279726.26    2929633.8 0.00017148697 -0.0002126643 -0.0005783661 
  715000    2.6028004 0.0023694659    279726.26    2933984.3 0.00016779191 -0.00016665683 -0.00056608014 
  716000    2.6055835 0.0023671793    279726.26    2938303.2 0.00024546768 -0.00022393955 -0.00060290003 
  717000    2.6053844 0.0023665479    279726.26    2942490.4 0.00024714081 -0.00021099851 -0.0005705063 
  718000    2.6066429 0.0023815848    279726.26    2946547.8 0.0002892897 -0.00020348062 -0.00063049839 
  719000    2.6030986 0.0023695817    279726.26    2950675.9 0.00032736732 -0.00015298074 -0.00062137793 
  720000     2.607468 0.0023673523    279726.26    2954924.4 0.0003211948 -0.00016642855 -0.00057757298 
  721000    2.6049907 0.0023675464    279726.26    2959203.6 0.00034557373 -0.00019591526 -0.00053682105 
  722000    2.6038849 0.0023681102    279726.26    2963526.8 0.00033410415 -0.00022512058 -0.00058241947 
  723000    2.6060932 0.0023647564    279726.26    2967632.8 0.0003273174 -0.00026956954 -0.00051411257 
  724000    2.6063494 0.0023649992    279726.26    2971821.3 0.00029960102 -0.00020085923 -0.00056325363 
  725000    2.6063531 0.0023643559    279726.26    2976025.1 0.00028042431 -0.00022340301 -0.00060571701 
  726000     2.604559 0.0023676262    279726.26      2980111 0.00026885561 -0.00020258154 -0.00057956124 
  727000     2.604826 0.0023683284    279726.26      2984275 0.00029329127 -0.00021744574 -0.00062505171 
  728000    2.6089674 0.0023721481    279726.26    2988436.1 0.00021328589 -0.00017953392 -0.00062424036 
  729000    2.6071603  0.002382992    279726.26    2992619.1 0.00018987808 -0.0001420396 -0.00059289173 
  730000    2.6057108 0.0023672478    279726.26      2996883 0.00032289061 -8.6741472e-05 -0.00054983457 
  731000     2.604941 0.0023665493    279726.26    3001214.9 0.00027171285 -0.00015868077 -0.00058187451 
  732000     2.606799 0.0023671324    279726.26    3005652.8 0.00023024119 -0.00018864769 -0.00054836798 
  733000    2.6026203 0.0023705354    279726.26    3010199.9 0.00025286751 -0.00020154536 -0.00054734226 
  734000    2.6055492 0.0023828764    279726.26      3014828 0.00025535326 -0.0002075084 -0.00055292689 
  735000    2.6163111 0.0023694693    279726.26    3019289.9 0.00026942827 -0.00030007137 -0.00058576759 
  736000    2.6068565 0.0023640061    279726.26    3023610.1 0.00023642253 -0.00033135065 -0.00065819892 
  737000    2.6059137 0.0023709017    279726.26    3027909.4 0.00024183667 -0.00035179043 -0.0007055183 
  738000    2.6039879 0.0023685067    279726.26    3032207.6 0.0003429185 -0.00035551521 -0.00069491371 
  739000    2.6023194 0.0023712266    279726.26    3036400.5 0.00031748634 -0.00034108486 -0.00067849336 
  740000    2.6059164 0.0023692963    279726.26    3040710.9 0.00047901096 -0.00031304275 -0.00063212266 
  741000     2.607999 0.0023658577    279726.26    3045045.2 0.00047548206 -0.00029634515 -0.00053414905 
  742000    2.6026717 0.0023701837    279726.26    3049249.7 0.00047192811 -0.00028081333 -0.00046658876 
  743000    2.6023042  0.002370772    279726.26    3053498.5 0.00048096125 -0.00026216815 -0.0004899699 
  744000    2.6081109  0.002374074    279726.26    3057843.6 0.00049231835 -0.00010797002 -0.00056779872 
  745000    2.6051488 0.0023701683    279726.26    3062169.6 0.00045273812 -0.00013614634 -0.0005084499 
[...]
 1847000    2.6048731 0.0023665185    279726.26    7632070.8 0.00020325218 0.00035404515 -0.00060535614 
 1848000    2.6061526 0.0023648176    279726.26    7638279.3 0.00021029272 0.00035204103 -0.00054320161 
 1849000    2.6031922 0.0023697224    279726.26    7644556.3 0.00021134059 0.00035570293 -0.00054255454 
 1850000    2.6056611  0.002377058    279726.26    7650848.3 0.00021468587 0.00033665659 -0.00051229149 
 1851000    2.6032331 0.0023697463    279726.26    7657009.4 0.00024388336 0.00039366683 -0.00057999856 
 1852000    2.6053298 0.0023654324    279726.26    7662986.2 0.00025031953 0.00038202631 -0.00068063744 
 1853000    2.6055229 0.0023668038    279726.26    7668667.6 0.00040491297 0.00047513698 -0.0007595592 
 1854000    2.6060996 0.0023662543    279726.26    7674315.6 0.00044535425 0.0004380986 -0.00080615408 
 1855000    2.5989948 0.0024249241    279726.26      7680006 0.00054290738 0.00044603765 -0.00080079891 
 1856000    2.6031445 0.0023696176    279726.26    7685736.8 0.00051983371 0.00046953221 -0.00080551375 
 1857000    2.6055482 0.0023809083    279726.26    7691095.7 0.00060318017 0.0004715106 -0.00082380817 
 1858000    2.6027357 0.0023699155    279726.26    7696228.9 0.00059983778 0.00056576351 -0.00081346594 
 1859000    2.6023969  0.002370716    279726.26    7701338.8 0.00054005735 0.00060571409 -0.00076745699 
 1860000    2.6028238 0.0023698714    279726.26    7706602.5 0.00052391375 0.0005861753 -0.00081826013 
 1861000     2.606156 0.0023677022    279726.26    7711984.4 0.00051761906 0.00059091912 -0.00079256369 
 1862000     2.602372 0.0023708651    279726.26    7717303.5 0.00049851044 0.00055516653 -0.00077230914 
 1863000    2.6049981 0.0023670422    279726.26    7722688.8 0.00048787998 0.00057572507 -0.00067459722 
 1864000     2.606068 0.0023655398    279726.26    7728154.6 0.00049232077 0.00039405006 -0.00058691877 
 1865000     2.605634 0.0023661231    279726.26    7733871.6 0.0004803069 0.00031214021 -0.00065464196 
 1866000    2.6077745 0.0023969406    279726.26    7739686.3 0.00051282267 0.00023114833 -0.00056309765 
 1867000    2.6052781 0.0023803676    279726.26    7745126.4 0.00062991227 0.00013410058 -0.0006054986 
 1868000    2.6043637 0.0023671743    279726.26    7750580.7 0.00063753701 0.00011939877 -0.00062940081 
 1869000    2.6075356 0.0023843411    279726.26    7755864.8 0.00066376696 0.00018793367 -0.00065926238 
 1870000    2.6104028 0.0023703594    279726.26    7760882.3 0.00062288493 0.0002073451 -0.00048704973 
 1871000    2.6074514 0.0023730854    279726.26    7766109.7  0.000623271 0.00023041457 -0.00047553138 
 1872000    2.6051072 0.0023759429    279726.26    7771588.1 0.0005441185 0.00029704535 -0.00047715427 
 1873000    2.6050211 0.0023805632    279726.26    7777208.5 0.00051778567 0.00029466299 -0.00051044614 
 1874000    2.6053467 0.0023681035    279726.26      7782536 0.00035570011 0.00034255088 -0.00020765269 
 1875000    2.6043074 0.0023684751    279726.26    7787638.2 0.00035874076 0.00032115658 -0.00021552229 
 1876000    2.6091029 0.0023706806    279726.26    7792794.1 0.00035975667 0.00029266836 -0.00025643573 
 1877000    2.6052117 0.0023928188    279726.26    7797934.5 0.00048070043 0.00032366192 -0.00033577845 
 1878000    2.6059828 0.0023681293    279726.26    7802967.7 0.00039620754 0.0003291097 -0.00032253858 
 1879000    2.6028447 0.0023697019    279726.26    7807856.3 0.00016775142 0.00019250393 7.3344879e-05 
 1880000    2.6022469 0.0023711899    279726.26    7812629.2 0.00012431807 0.00019857653 8.6756494e-05 
 1881000    2.6029396 0.0023697069    279726.26    7817387.1 9.6619326e-05 0.0002667749 5.9295498e-05 
 1882000    2.6083096  0.002368257    279726.26    7821976.5 0.00015612298 0.00021544372 6.6816192e-05 
 1883000    2.6101693 0.0023926723    279726.26    7826413.7 0.00012252865 0.00025194779 5.8291531e-05 
 1884000    2.6029403  0.002369676    279726.26    7830815.7 0.00019541904 0.00025479255 7.0266215e-05 
 1885000    2.6066481 0.0023643711    279726.26    7835301.6 0.00022541045 0.00024130559 4.9135763e-05 
 1886000    2.6057921 0.0023652137    279726.26    7839645.7 0.00022268705 0.00027707669 7.9186728e-05 
 1887000    2.6024365 0.0023706216    279726.26    7843950.8 0.00019271835 0.00029019466 9.5299894e-05 
 1888000    2.6046921 0.0023683612    279726.26    7848497.3 9.4893713e-05 0.00016896504 9.9752256e-06 
 1889000    2.6028063 0.0023702575    279726.26    7853245.5 0.00010205518 0.00014730498 -5.7748455e-05 
 1890000    2.6050633  0.002368309    279726.26    7858063.7  0.000127164 0.00014137604 -4.6775915e-05 
 1891000     2.604194 0.0023679708    279726.26    7862876.5 0.00015399092 0.00014960328 -8.2250123e-05 
 1892000    2.6086757 0.0023990175    279726.26    7867462.1 0.00015995093 0.00022344528 -1.6255174e-06 
 1893000    2.6077256 0.0023651066    279726.26    7871736.1 0.0001210237 2.5804174e-05 -1.3940493e-05 
 1894000    2.6067039 0.0023715828    279726.26    7876210.3 0.0001791085 7.6751638e-06 -1.1429789e-05 
 1895000    2.6054311 0.0023820247    279726.26    7880363.4 0.0002283662 1.5977662e-05 -1.9285266e-05 
 1896000    2.6027256 0.0024228588    279726.26    7884500.3 0.00034283119 0.00014608746 2.2854321e-05 
 1897000    2.6122113 0.0023742291    279726.26    7888507.5 0.00020647969 2.2292631e-05 6.7990705e-05 
 1898000    2.6075678 0.0023811182    279726.26    7892510.8 0.00023025072 -1.6494111e-05 6.9176736e-05 
 1899000    2.6060104   0.00236999    279726.26    7896523.7 0.00021013254 -2.430031e-05 9.5747484e-05 
 1900000    2.6042794  0.002370931    279726.26    7900490.5 0.00022776388 -8.4298705e-05 1.7288621e-05 
 1901000    2.6075267 0.0023648556    279726.26    7904310.9 0.0002516726 -9.5411113e-05 -1.0064069e-05 
 1902000    2.6052006 0.0023671501    279726.26    7908144.3 0.00022775279 -0.00038268353 0.00011518666 
 1903000    2.6069774  0.002370809    279726.26      7911936 0.00024884865 -0.00037999076 0.00012092682 
 1904000    2.6042605 0.0023686049    279726.26      7915774 0.00024674485 -0.00039552547 8.1184757e-05 
 1905000    2.6041108 0.0023686008    279726.26    7919730.4 0.0003026494 -0.0003398796 5.9705686e-05 
 1906000    2.6065196 0.0023689233    279726.26    7923655.2 0.00027211574 -0.00034554522 3.3748478e-05 
 1907000    2.6085822 0.0023652899    279726.26    7927568.4 0.00034662032 -0.0004095859 -0.00010165037 
 1908000    2.6098156 0.0023649264    279726.26    7931342.1 0.00042333323 -0.00026428417 -4.8586458e-05 
 1909000    2.6039324 0.0023682298    279726.26      7935228 0.00040997581 -0.00021727223 -3.9749756e-05 
 1910000    2.6054638  0.002366132    279726.26    7939192.7 0.00042477868 -0.00021187162 -2.7746095e-05 
 1911000    2.6075378 0.0023666735    279726.26    7943246.3 0.00036218172 -0.00024472626 -3.8077364e-05 
 1912000    2.6020606 0.0024105803    279726.26    7947234.9 0.00031291096 -0.00016404818 -0.00012506168 
 1913000    2.6050048 0.0023677402    279726.26    7951319.5 0.00040415823 -0.00030157983 3.0505288e-05 
 1914000    2.6044594 0.0023676599    279726.26    7955448.7 0.00040951381 -0.00030245032 3.0540021e-05 
 1915000    2.6051201 0.0023672238    279726.26    7959714.5 0.00045952233 -0.00029512267 -1.047021e-05 
 1916000    2.6064764  0.002364907    279726.26    7963997.4 0.00036099307 -0.00051143623 -0.00018058754 
 1917000    2.5964187 0.0024441872    279726.26    7968130.2 0.00034627098 -0.00080036791 -0.00054229472 
 1918000    2.6047637 0.0023675148    279726.26    7971804.4 0.00026168598 -0.00044250048 -0.00023269335 
 1919000    2.6071268 0.0023672987    279726.26    7975038.7 0.00025355373 -0.00043522378 -0.00024610814 
 1920000    2.6049672 0.0023678827    279726.26    7978371.3 0.00028282029 -0.00044462245 -0.00019474348 
 1921000      2.60675 0.0023675365    279726.26    7981915.7 0.00025094142 -0.00047157518 -0.00022822471 
 1922000    2.6066414 0.0024123848    279726.26    7985460.8 0.00024220419 -0.00068676873 -0.00055677525 
 1923000    2.6052726 0.0023763427    279726.26    7988814.3 0.00026778219 -0.00047398519 -0.00030677279 
 1924000    2.6070249 0.0023831678    279726.26    7992079.1 0.0001783087 -0.00032326561 -0.0003198232 
 1925000     2.611857 0.0023858722    279726.26    7995401.3 0.00026058281 -0.00036951072 -0.00031354802 
 1926000    2.6074591 0.0023784585    279726.26    7998796.2 0.00022949381 -0.00026597679 -0.0004023763 
 1927000     2.605389 0.0023687765    279726.26    8002138.8 0.00021175652 -0.00034807175 -0.00037011614 
 1928000    2.6067846 0.0023929566    279726.26    8005434.2 0.00041745003 -0.00029057698 -0.00046024495 
 1929000    2.5979917 0.0024378938    279726.26    8008674.3 0.00022272916 -0.00038106573 -0.00053031545 
 1930000    2.6100394 0.0023661643    279726.26    8011872.4 0.00037319866 -0.00037644466 -0.00030682185 
 1931000    2.6080266 0.0023647548    279726.26    8014983.3 0.00027873858 -0.00036970368 -0.00024167974 
 1932000    2.6057295 0.0023673178    279726.26    8017892.2 0.00031679097 -0.00035124639 -0.00026442484 
 1933000     2.605183 0.0023677021    279726.26    8020970.2 0.00028402745 -0.00033344785 -0.00016933733 
 1934000    2.6078579 0.0023645483    279726.26    8024073.8 0.00025184739 -0.00028235968 -0.00023444922 
 1935000    2.6056378 0.0023719499    279726.26    8027075.4 0.00016130475 -0.00033981865 -0.00032505241 
 1936000    2.6079277 0.0023712556    279726.26      8030017 0.00019671885 -0.00038790047 -0.00029939497 
 1937000    2.6126992 0.0023681492    279726.26    8032744.7 0.00020285014 -0.00045778513 -0.00033837978 
 1938000    2.6036998 0.0023688921    279726.26    8035655.5 0.00016983011 -0.00041915305 -0.0004070773 
 1939000    2.6027981 0.0023700978    279726.26    8038568.3 0.00016064484 -0.00039683839 -0.000394893 
 1940000     2.602223 0.0023709741    279726.26    8041466.1 0.00014412976 -0.00040668399 -0.00045961331 
 1941000    2.6059541 0.0023660718    279726.26    8044353.5 0.00018078282 -0.00024922303 -0.000217666 
 1942000    2.6108546 0.0023773845    279726.26    8047448.5 0.00022901321 -0.00021943488 -0.00018545119 
 1943000    2.6041369 0.0023672973    279726.26    8050638.6 0.00021066397 -0.00018469022 -0.0002048204 
 1944000    2.6049384 0.0023764908    279726.26    8053889.7 0.00022579973 -0.00018126132 -0.00015880575 
 1945000    2.6032079 0.0023697599    279726.26    8057125.4 0.00021469752 -0.00024398639 -0.00026902071 
 1946000    2.6138601 0.0023669741    279726.26    8060611.3 0.00025392749 -0.00021342702 -0.00025912252 
 1947000     2.604643 0.0024522963    279726.26    8064192.9 9.8206949e-05 -0.00049306227 -0.00014204234 
 1948000    2.6038573 0.0023685331    279726.26    8068076.4 0.00011813316 -0.00040043247 -0.00032645649 
 1949000    2.6030723  0.002369389    279726.26    8071972.6 0.00010873774 -0.00040197903 -0.00031954837 
 1950000    2.6073782 0.0023707136    279726.26    8075822.1 0.00010039331 -0.00041422651 -0.00038397763 
 1951000    2.6029485 0.0023697854    279726.26    8079323.6 7.9828642e-05 -0.00044033452 -0.00033750123 
 1952000    2.6031393 0.0023695501    279726.26    8082640.4 -8.7924799e-06 -0.00047104969 -0.00022620386 
 1953000    2.6044244  0.002367528    279726.26    8085864.8 -1.334003e-05 -0.00056160213 -0.00019114279 
 1954000    2.6042851  0.002368602    279726.26    8089182.8 2.9896202e-05 -0.00060862233 -0.00016980163 
 1955000    2.6055045 0.0023662257    279726.26    8092443.8 0.00017151161 -0.00053006824 -0.00020365234 
 1956000    2.6056998 0.0023764543    279726.26    8095813.3 0.0001815216 -0.00053628151 -0.00020991803 
 1957000    2.6023544 0.0023709801    279726.26    8099106.7 0.00012868486 -0.00054758781 -0.00018872162 
 1958000    2.6056736 0.0023671736    279726.26    8102361.4 8.8946766e-05 -0.00043791435 -0.00034735761 
 1959000    2.6046888 0.0024211407    279726.26    8105516.1 -0.00013993028 -0.00028511533 -9.6772336e-05 
 1960000    2.6026628 0.0023701054    279726.26    8108669.7 -8.1990838e-05 -0.00032354978 -0.00036667953 
 1961000    2.6097523 0.0023940122    279726.26    8111872.1 -7.5551762e-05 -0.00030131459 -0.00039122411 
 1962000    2.6090431 0.0023794916    279726.26    8115468.7 -3.1601278e-05 -0.00016182602 -0.00038602524 
 1963000    2.6100138 0.0023758891    279726.26    8119117.8 -2.9469449e-05 -0.00013301978 -0.00043403902 
 1964000    2.6083099 0.0023899418    279726.26    8122762.6 -0.00013560022 -0.00015198088 -0.00046996865 
 1965000    2.5894143 0.0025136545    279726.26    8126565.4 2.3483087e-05 -5.8888922e-05 -0.000296297 
 1966000    2.6090983 0.0023690078    279726.26    8130577.6 1.8668449e-05 -1.4340973e-05 -0.00047393561 
 1967000      2.60391 0.0023685413    279726.26    8134826.8 -3.3358209e-05 -9.0951326e-07 -0.00049134971 
 1968000    2.6077379 0.0023774957    279726.26    8139185.8 -6.6489924e-05 -5.461761e-05 -0.00048915807 
 1969000    2.6089906 0.0023674769    279726.26    8143603.2 -4.7489888e-05 -6.5573893e-05 -0.00044933983 
 1970000    2.6062848 0.0023724135    279726.26      8148062 -3.3907324e-05 -5.4700897e-05 -0.00048761231 
 1971000    2.6042869 0.0023678366    279726.26    8152544.9 -3.7001929e-05 -0.00010741949 -0.00044953638 
 1972000    2.6077604 0.0023763602    279726.26    8157038.6 -5.4377285e-05 -4.4455672e-05 -0.00046501376 
 1973000    2.6045537 0.0023684982    279726.26    8161550.5 -3.3272943e-05 -6.2607938e-05 -0.00045805991 
 1974000    2.6072004 0.0023659801    279726.26    8166240.6 -6.4544299e-05 -2.991302e-05 -0.00044279716 
 1975000    2.6042444 0.0023673464    279726.26    8170975.5 -6.5424026e-05 -1.5343917e-05 -0.00061914807 
 1976000    2.6063267 0.0023676705    279726.26    8175770.7 0.00013245425 -9.3435026e-05 -0.00061274363 
 1977000    2.6055028 0.0023688287    279726.26    8180967.5 0.0001071173 -0.00010892854 -0.00053797025 
 1978000     2.610761 0.0023720506    279726.26    8186289.2 0.00013505371 -7.9394102e-05 -0.00051393886 
 1979000     2.608086 0.0023614227    279726.26    8191554.1 0.00016654773 -0.00010350774 -0.00056320538 
 1980000    2.6064109 0.0023665493    279726.26    8196612.5 0.00022617798 -3.0520003e-05 -0.00055925273 
 1981000    2.6079669 0.0023698938    279726.26    8201593.5 0.00024496369 -0.0001314327 -0.00043053776 
 1982000     2.603084 0.0023692808    279726.26    8206437.7 0.00019395474 -8.8497534e-05 -0.00037770575 
 1983000    2.6073971 0.0023645108    279726.26    8211230.4 0.00019750969 -8.4029997e-05 -0.0004098643 
 1984000    2.6035475 0.0023685049    279726.26    8216009.5 0.00014354361 1.1129696e-05 -0.00042297118 
 1985000    2.6061258 0.0023734318    279726.26    8220685.1 0.00010961046 6.6801917e-05 -0.00050522044 
 1986000    2.6078827   0.00236413    279726.26    8225355.7 1.4930367e-05 0.00035066075 -0.00046261463 
 1987000    2.6069396 0.0023754184    279726.26    8230220.2 -1.1484092e-05 0.00022776747 -0.00052372817 
 1988000    2.6092218 0.0023727549    279726.26    8235087.5 -0.00013249867 0.0001621202 -0.00044777302 
 1989000    2.6063759 0.0023666893    279726.26    8239882.2 -8.1331919e-05 0.00018115956 -0.00041257291 
 1990000    2.6032985 0.0023683173    279726.26    8244703.7 -6.025604e-05 0.00017960475 -0.00043220907 
 1991000    2.6038238 0.0023687342    279726.26    8249443.9 -3.2719357e-05 0.00016947582 -0.00040285883 
 1992000    2.6035992 0.0023687932    279726.26    8254289.5 -2.4018903e-05 0.00014984622 -0.00041363205 
 1993000     2.602573 0.0023705901    279726.26    8259328.9 -7.2764686e-06 0.00012990289 -0.00042946132 
 1994000    2.6063375 0.0023675674    279726.26    8264247.1 -5.3689164e-05 0.00015620724 -0.0004202217 
 1995000    2.6049119  0.002367924    279726.26    8269164.5 -4.9319824e-05 0.00014241588 -0.00045542384 
 1996000    2.6062176 0.0023672928    279726.26    8274069.3 -3.9308188e-05 0.00016630338 -0.0004614744 
 1997000    2.6049173  0.002366958    279726.26    8279056.8 -4.6846816e-05 -5.030316e-05 -0.00057954475 
 1998000    2.6037271 0.0023678037    279726.26    8284198.3 -3.0027984e-05 -4.4579107e-05 -0.00057595214 
 1999000    2.6026421 0.0023706017    279726.26    8289315.7 -2.4512574e-05 -4.6026939e-05 -0.00059240458 
 2000000    2.6037403 0.0023685824    279726.26    8294534.8 -5.4114064e-05 -3.2293072e-05 -0.00059748453 
Loop time of 871.485 on 1 procs for 2000000 steps with 256 atoms

Pair  time (%) = 5.58641 (0.641022)
Neigh time (%) = 30.4197 (3.49056)
Comm  time (%) = 3.86971 (0.444037)
Outpt time (%) = 0.191515 (0.0219758)
Other time (%) = 831.418 (95.4024)

Nlocal:    256 ave 256 max 256 min
Histogram: 1 0 0 0 0 0 0 0 0 0
Nghost:    87 ave 87 max 87 min
Histogram: 1 0 0 0 0 0 0 0 0 0
Neighs:    12 ave 12 max 12 min
Histogram: 1 0 0 0 0 0 0 0 0 0

Total # of neighbors = 12
Ave neighs/atom = 0.046875
Neighbor list builds = 161152
Dangerous builds = 7271
#	run			10000
	unfix			1
	uncompute		myKE
	uncompute		myPE
	uncompute		myStress
	uncompute		flux
	uncompute		myDis
	unfix			JJ

	next seed
	next iseed
jump lmp.in.gk loop_seed
variable iseed loop 5
variable seed index 11111 22222 33333 44444 55555 ###66666 77777 88888 99999 11112
clear

# Lennard-Jones
#Prepare Geometry---------------------------------------------------------------
units			lj
atom_style		atomic
read_data		lmp.in.x0.1
  orthogonal box = (0 0 0) to (65.4 65.4 65.4)
  1 by 1 by 1 MPI processor grid
  256 atoms
#Initialize Structure-----------------------------------------------------------
#mass           	1  1.0
#group         		Ar type = 1
#LJ Potentials------------------------------------------------------------------
pair_style		lj/cut 2.5
pair_coeff		* * 1.0 1.0
pair_modify          	shift yes
#pair_modify   	tail no

#Variables----------------------------------------------------------------------
#LJ Parameters
variable    	kB 		equal 1.3806504e-23 	# [J/K] Boltzmann
variable	sigma_Ar 	equal 3.4e-10 		# m
variable	eps_Ar		equal 1.67e-21		# J
variable	mass_Ar		equal 6.63e-26		# kg
variable	tau_Ar		equal 2.1423e-12	# s
#thermo Parameters
variable    	T_melt 		equal 300*(${kB}/${eps_Ar})
variable    	T_melt 		equal 300*(1.3806504000000001236e-23/${eps_Ar})
variable    	T_melt 		equal 300*(1.3806504000000001236e-23/1.6699999999999999942e-21)
variable	T_0K		equal 0.00001
variable	T_2_5K		equal 2.5*(${kB}/${eps_Ar})
variable	T_2_5K		equal 2.5*(1.3806504000000001236e-23/${eps_Ar})
variable	T_2_5K		equal 2.5*(1.3806504000000001236e-23/1.6699999999999999942e-21)
variable	T_5K		equal 5*(${kB}/${eps_Ar})
variable	T_5K		equal 5*(1.3806504000000001236e-23/${eps_Ar})
variable	T_5K		equal 5*(1.3806504000000001236e-23/1.6699999999999999942e-21)
variable	T_10K		equal 10*(${kB}/${eps_Ar})
variable	T_10K		equal 10*(1.3806504000000001236e-23/${eps_Ar})
variable	T_10K		equal 10*(1.3806504000000001236e-23/1.6699999999999999942e-21)
variable	T_15K		equal 15*(${kB}/${eps_Ar})
variable	T_15K		equal 15*(1.3806504000000001236e-23/${eps_Ar})
variable	T_15K		equal 15*(1.3806504000000001236e-23/1.6699999999999999942e-21)
variable	T_320K		equal 320*(${kB}/${eps_Ar})
variable	T_320K		equal 320*(1.3806504000000001236e-23/${eps_Ar})
variable	T_320K		equal 320*(1.3806504000000001236e-23/1.6699999999999999942e-21)

variable   	dt 		equal 0.002
variable	quench_rate	equal 1.0
variable	quench_length 	equal 10000
#kappa parameters
variable    	p 		equal 200000 		# correlation length
variable    	s 		equal 5  		# sample interval
variable    	d 		equal $p*$s 		# dump interval
variable    	d 		equal 200000*$s 		
variable    	d 		equal 200000*5 		

#SED parameters
variable	w_step		equal 2^5
variable	w_total		equal 2^16
variable	t_total		equal 2^18
variable	num_ffts	equal ${t_total}/${w_total}
variable	num_ffts	equal 262144/${w_total}
variable	num_ffts	equal 262144/65536

#------------ RUN TEMP ---------------------------------------------------------------------
variable 	T_run 		equal ${T_320K}
variable 	T_run 		equal 2.6455576526946114058
#------------ RUN TEMP ---------------------------------------------------------------------

log 	log_heat_${iseed}.lammps
log 	log_heat_2.lammps
