	reset_timestep  	0
	fix 			1 all nve
	compute   		myKE all ke/atom
	compute   		myPE all pe/atom
	compute   		myStress all stress/atom virial
	compute   		flux all heat/flux myKE myPE myStress
	variable  		Jx equal c_flux[1]/vol
	variable  		Jy equal c_flux[2]/vol
	variable  		Jz equal c_flux[3]/vol
	fix       		JJ all ave/correlate $s $p $d c_flux[1] c_flux[2] c_flux[3] type auto file J0Jt_${iseed}.dat ave running
	fix       		JJ all ave/correlate 5 $p $d c_flux[1] c_flux[2] c_flux[3] type auto file J0Jt_${iseed}.dat ave running
	fix       		JJ all ave/correlate 5 200000 $d c_flux[1] c_flux[2] c_flux[3] type auto file J0Jt_${iseed}.dat ave running
	fix       		JJ all ave/correlate 5 200000 1000000 c_flux[1] c_flux[2] c_flux[3] type auto file J0Jt_${iseed}.dat ave running
	fix       		JJ all ave/correlate 5 200000 1000000 c_flux[1] c_flux[2] c_flux[3] type auto file J0Jt_3.dat ave running
#	fix       		JJ all ave/correlate $s $p $d c_flux[1] c_flux[2] c_flux[3] type auto ave running
#	dump			JJ all custom 1000000 J0Jt.dat f_JJ[3] f_JJ[4] f_JJ[5]
	compute 		myDis all msd
	thermo_style 		custom step temp press vol c_myDis[4] v_Jx v_Jy v_Jz
	thermo			1000
	timestep		${dt}
	timestep		0.0020000000000000000416
	run			2000000
Memory usage per processor = 3.5433 Mbytes
Step Temp Press Volume myDis[4] Jx Jy Jz 
       0    2.6429783 0.0024061241    279726.26            0 0.00031393963 0.00075730261 -0.00016378279 
    1000    2.6408371 0.0023998493    279726.26    31.439226 0.00029938628 0.00079928274 -0.00018075189 
    2000    2.6452777 0.0023927393    279726.26    125.81671 0.00033892973 0.00074655224 -0.00018348521 
    3000    2.6428522 0.0023967606    279726.26    282.64427 0.00028297116 0.00074976422 -0.00016697786 
    4000    2.6419252 0.0024049303    279726.26    498.22509 0.00029555125 0.00077536408 -0.0001059855 
    5000    2.6414629 0.0023996918    279726.26    771.50301 0.00024397042 0.00079112776 -0.00016047921 
    6000    2.6452244  0.002401459    279726.26    1103.1596 0.00023049444 0.00080055011 -0.00014076001 
    7000    2.6424085 0.0024147797    279726.26    1489.0576 0.00031022793 0.00077613116 -8.6321621e-05 
    8000    2.6397539  0.002390944    279726.26    1932.5714 0.00024202726 0.00089968704 -6.237884e-05 
    9000    2.6438308  0.002395227    279726.26     2435.708 0.00025623915 0.00092100848 -4.8428517e-05 
   10000    2.6378007 0.0024017382    279726.26    3000.6021 0.00024200671 0.00092160551 -5.969875e-05 
   11000    2.6413495 0.0023915585    279726.26    3625.7484 0.0001728068 0.00094309095 -3.6270789e-05 
   12000     2.639069 0.0023914267    279726.26    4310.2857 0.00016605081 0.00093216844 -3.8067226e-05 
   13000    2.6426287 0.0024128583    279726.26    5055.5023 0.00020468724 0.00094618703 7.1954642e-06 
   14000    2.6376987 0.0023891073    279726.26    5859.9437 0.00013761515 0.00090797724 -2.4098867e-05 
   15000    2.6436657 0.0023890048    279726.26    6722.7641 0.00010842418 0.00089431143 -1.7661789e-05 
   16000    2.6363863  0.002483524    279726.26    7647.4702 -0.00027057879 0.00078941714 4.2096792e-06 
   17000    2.6396476 0.0023920933    279726.26    8601.1577 2.2612563e-05 0.00076741471 -1.2609035e-05 
   18000    2.6381337 0.0023934096    279726.26    9591.4139 4.4003764e-05 0.00077847937 -2.3113212e-05 
   19000    2.6385117 0.0023959939    279726.26    10628.692 1.2244322e-05 0.00078597118 -1.2582585e-06 
   20000    2.6427312  0.002391746    279726.26    11709.201 2.5251446e-05 0.00082349265 -0.0001118938 
   21000    2.6399388 0.0023908952    279726.26    12839.307 -1.8147822e-05 0.00085893733 -8.6091902e-05 
   22000     2.643133 0.0023973427    279726.26    14027.817 8.3759071e-05 0.00099380992 -0.00024351296 
   23000    2.6410238 0.0023958866    279726.26    15274.173 0.00014387507 0.00098565187 -0.00027516241 
   24000    2.6356658 0.0023947414    279726.26    16563.895 0.0001913664 0.0010795149 -5.3444217e-05 
   25000     2.635663   0.00239719    279726.26    17891.876 7.8189965e-05 0.0011602712 -2.0048837e-05 
   26000    2.6394077 0.0023997425    279726.26    19252.008 2.7904726e-05 0.0011623398 8.0582563e-06 
   27000     2.637963 0.0024125843    279726.26    20667.414 -0.00013796719 0.0012356398 -5.5968171e-05 
   28000    2.6361562 0.0023968608    279726.26    22133.154 -0.00010872899 0.0011876991 -8.9657537e-05 
   29000    2.6356146 0.0023913938    279726.26    23649.752 -9.748584e-05 0.0012030526 -4.6803897e-05 
   30000    2.6369655 0.0023932671    279726.26    25205.946 -0.00010112594 0.0012156709 -0.00013156209 
   31000    2.6389574 0.0023968788    279726.26    26814.067 -7.6330281e-05 0.0011991782 -0.00012808844 
   32000    2.6334107 0.0023952938    279726.26    28459.934 -9.5685387e-05 0.0011384305 -0.0001113213 
   33000    2.6385382 0.0024075101    279726.26    30124.049 -0.0001196202 0.0012702261 -0.00019669857 
   34000    2.6332354 0.0023945155    279726.26    31817.365 -7.0836929e-05 0.0012777144 -0.00023995894 
   35000    2.6326196 0.0023947568    279726.26    33545.701 -2.8410518e-05 0.0012317258 -0.00025812436 
   36000    2.6330136 0.0023952384    279726.26    35313.185 -4.6194748e-05 0.0012681798 -0.00025152987 
   37000    2.6320615 0.0023960461    279726.26    37123.948 -8.0271097e-05 0.0012177384 -0.00020465344 
   38000    2.6339883 0.0024400229    279726.26    38962.623 9.9479879e-06 0.0012231982 -0.00026703992 
   39000    2.6318933 0.0023964657    279726.26    40849.675 1.1137147e-05 0.0012858283 -0.00010282352 
   40000    2.6335706 0.0024182974    279726.26    42775.044 4.7079216e-05 0.0012267373 -0.0002140507 
   41000    2.6361546 0.0023924236    279726.26    44732.499 8.3999057e-05 0.0013369678 -0.00014878427 
   42000    2.6326288 0.0023952466    279726.26    46736.098 5.770879e-05 0.0012824211 -0.00013696037 
   43000    2.6373188 0.0024057463    279726.26    48766.298 -3.5517635e-05 0.0012916871 -0.00017027682 
   44000    2.6321734 0.0023958559    279726.26    50788.296 8.6137818e-05 0.0012624236 -0.00014493547 
   45000    2.6315019 0.0023975684    279726.26    52836.638 7.7875712e-05 0.0013349735 -0.00013154682 
   46000    2.6336013 0.0023940078    279726.26    54901.876 2.8725501e-05 0.0012709889 -0.00012561964 
   47000    2.6334128 0.0024278956    279726.26    56991.299 6.7651491e-05 0.0012226644 -0.00027748536 
   48000    2.6331488 0.0023943861    279726.26    59129.957 4.0519383e-05  0.001326699 -9.3953931e-05 
   49000    2.6333392 0.0023948575    279726.26    61301.213 -1.2786413e-05 0.0013212417 -0.00010174753 
   50000    2.6327438 0.0024164084    279726.26    63523.484 2.3307341e-05 0.0013319317 -5.6128204e-05 
   51000    2.6394071 0.0023898701    279726.26    65785.086 -3.6950259e-05 0.0011913511 -3.1230791e-07 
   52000    2.6331131 0.0023949678    279726.26    68081.138 4.5725415e-05 0.0011557615 5.7464641e-05 
   53000    2.6339081 0.0023923291    279726.26    70385.366 0.00011983479 0.0011691181 8.6142376e-05 
   54000    2.6378568 0.0024003176    279726.26    72733.465 0.00011561365 0.0012130257 9.1726848e-05 
   55000    2.6316501 0.0024352408    279726.26    75121.348 5.8131504e-05 0.0011603371 0.00023633597 
   56000    2.6338391 0.0023940456    279726.26    77555.821 0.00019238873 0.0011897665 0.00018851605 
   57000    2.6332813 0.0023936696    279726.26    80039.914 0.00016115071 0.0012040475 0.00019648784 
   58000     2.636675 0.0024130391    279726.26    82560.468 0.00011012053 0.0011669944 0.00019987652 
   59000    2.6325153 0.0023954848    279726.26    85115.477 5.6077859e-05 0.0011539453 0.00022345726 
   60000    2.6314851 0.0023973743    279726.26    87700.928 0.00028509533 0.0012105126 0.0002100727 
   61000    2.6337562 0.0024006511    279726.26    90323.922 0.00031882027 0.0012539163 0.0001975363 
   62000    2.6327534 0.0023949425    279726.26    92951.357 0.00035439092 0.0013120925 0.00021501723 
   63000    2.6370681 0.0023919994    279726.26    95612.486 0.00036453025 0.0012895438 0.00021068666 
   64000    2.6293685  0.002463425    279726.26    98320.702 0.00043130463 0.0013146828 0.00025710732 
   65000    2.6338212 0.0023948663    279726.26     101013.6 0.00023312966 0.0012042295 4.8557721e-05 
   66000     2.632848 0.0023949331    279726.26    103736.87 0.00025078915 0.0011891593 7.1568035e-05 
   67000    2.6337998 0.0024011591    279726.26    106471.75 0.00031030978 0.0012580276 0.00013827602 
   68000    2.6344604 0.0023949262    279726.26    109171.16 0.00037138879 0.0013143764 0.00016118547 
   69000    2.6334113 0.0023938385    279726.26    111888.75 0.00036260121  0.001274291 0.00013830113 
   70000     2.635078 0.0024044444    279726.26     114615.4 0.00036345118 0.0013118365 0.00025597428 
   71000    2.6340575 0.0024056352    279726.26    117318.18 0.00034888689 0.0011792143 0.0003117106 
   72000    2.6365406 0.0023981243    279726.26    119988.62 0.00034928543 0.0011150796 0.00027664404 
   73000    2.6350217  0.002392318    279726.26    122644.85 0.00021587262  0.001131518 0.00027680541 
   74000    2.6318808 0.0023967365    279726.26    125248.96 0.00024591075 0.0012439186 0.00029806722 
   75000    2.6350862 0.0023919244    279726.26    127907.91 0.00030364642 0.0011997926 0.00034373509 
   76000    2.6353383 0.0023937626    279726.26    130579.15 0.00029601473  0.001243817 0.0003379434 
   77000    2.6334974 0.0023942943    279726.26    133306.18 0.00031498235 0.0012254045 0.00032951813 
   78000    2.6362875 0.0023914221    279726.26    136067.49 0.00024163402 0.0011402725 0.00024844855 
   79000    2.6341965 0.0023923665    279726.26    138856.98 0.00019161711 0.0011530586 0.00030764843 
   80000    2.6357608  0.002403661    279726.26    141693.57 0.00015005538 0.0011001018  0.000302627 
   81000    2.6226948 0.0024922013    279726.26    144555.83 -0.00019393493 0.0012026459 0.00030030709 
   82000    2.6341429 0.0024146238    279726.26    147387.69 -8.5988214e-05 0.0011361595  0.000501184 
   83000    2.6326986 0.0023949013    279726.26    150245.07 -5.2723681e-05 0.0011592863 0.00050087078 
   84000     2.634036 0.0023963432    279726.26    153113.42 -9.4675861e-05 0.0013307043 0.00056378466 
   85000    2.6378793 0.0024255265    279726.26    155964.77 -5.9816866e-05 0.0013194105 0.00044985452 
   86000    2.6337163  0.002417124    279726.26    158854.99 -0.00014563534 0.0014487294 0.00060697557 
   87000    2.6328812  0.002394576    279726.26    161779.58 -0.00016854669 0.0014920162 0.00051671511 
   88000     2.633308 0.0023936127    279726.26    164737.57 -0.00013278105 0.0015182132 0.00048378697 
   89000    2.6328167 0.0023948595    279726.26     167721.4 -6.1602676e-05 0.0014255391 0.00048477256 
   90000    2.6322444 0.0023958431    279726.26    170740.47 -6.9399642e-05 0.0014351292 0.00048639658 
   91000    2.6340659 0.0023928621    279726.26    173810.09 -0.00012303564 0.0014144453 0.00051987585 
   92000    2.6320924 0.0023960889    279726.26     176898.9 -0.0001632324 0.0015406772 0.00055801697 
   93000    2.6318671 0.0023962273    279726.26    180006.39 -0.00022816646 0.0014341873 0.00059921827 
   94000    2.6365766 0.0024010767    279726.26    183155.32 -0.00022356696 0.0014143754 0.00060157264 
   95000    2.6337492  0.002393048    279726.26    186307.96 -0.00016030081 0.0015163585 0.00044786683 
   96000    2.6355652 0.0023971996    279726.26    189488.88 -0.00022087927 0.0014254676 0.00038132634 
   97000     2.632946 0.0023959949    279726.26    192717.99 -0.00023308974 0.0014224513 0.00036928519 
   98000     2.631435 0.0023972175    279726.26    195995.78 -0.0003247233 0.0014183762 0.00035310875 
   99000    2.6353033 0.0023917868    279726.26    199281.09 -0.00028012427 0.0016965963 0.0002892828 
  100000    2.6431006  0.002413559    279726.26    202573.24 -0.00025406814 0.0017889346 0.00010304378 
  101000    2.6318655 0.0023965934    279726.26    205884.62 -0.00033737533 0.0018321183 0.00023290038 
  102000    2.6343591 0.0023918611    279726.26    209164.83 -0.00025433663 0.0018057112 0.00022232549 
  103000    2.6312506 0.0024564395    279726.26    212469.62 -0.0002606628 0.0018686662 0.0001694379 
  104000    2.6341993 0.0023969367    279726.26    215740.51 -0.00016319737 0.0017871279 0.0002255887 
  105000    2.6339681 0.0023934868    279726.26     219062.3 -0.00017007681 0.0017843939 0.00015985261 
  106000    2.6329618 0.0023949047    279726.26    222401.98 -0.00021889282 0.0018131365 0.00014667085 
  107000    2.6346127 0.0023955633    279726.26    225783.56 -0.00018797035 0.0018838647 0.00014122796 
  108000    2.6336035 0.0023938511    279726.26    229191.48 -0.00021466021 0.0018776946 0.00012585274 
  109000    2.6329041 0.0023956196    279726.26    232640.61 -0.00025592975 0.0018554314 0.00013240212 
  110000    2.6371387 0.0023895407    279726.26    236006.57 -0.00026786558 0.0017318505 0.00012013828 
  111000    2.6340164 0.0023942207    279726.26    239397.77 -0.00015918804 0.0017301288 2.8320525e-05 
  112000    2.6294889 0.0024409693    279726.26    242824.18 -0.00044529417  0.001518829 0.00011689439 
  113000    2.6370669 0.0024009528    279726.26    246278.31 -0.00013882552 0.0016060312 5.2534297e-05 
  114000    2.6331499 0.0023951323    279726.26    249742.02 -0.00015901155 0.0016405433 -1.7185244e-05 
  115000     2.633853  0.002404164    279726.26    253233.57 -0.00010300476 0.0015730872 4.4157821e-05 
  116000    2.6332032 0.0023945622    279726.26    256752.46 -9.4412265e-05 0.0014801117 -9.6456847e-05 
  117000    2.6369521 0.0023910355    279726.26     260245.3 -6.9540041e-05 0.0014173849 -8.3147403e-05 
  118000    2.6321101 0.0023965366    279726.26    263785.62 -1.7218078e-05 0.0014148597 -7.9594735e-05 
  119000     2.632312  0.002396425    279726.26    267347.81 -9.2750367e-05 0.0013755794 -0.00017972817 
  120000    2.6313851 0.0023976639    279726.26    270954.89 -7.7348326e-05 0.0013657404 -0.00017090181 
  121000    2.6320379 0.0024257794    279726.26    274596.28 -0.00028638659  0.001322232 -0.0001548646 
  122000    2.6335287 0.0024131125    279726.26     278263.2 -0.0001273802 0.0011865792 -0.00015223719 
  123000    2.6315541 0.0023969245    279726.26    281945.72 -9.3484817e-05 0.0012514328 -0.00016778401 
  124000    2.6356352 0.0023905278    279726.26    285654.15 -0.00010402762 0.0013024573 -0.00014771092 
  125000     2.636666 0.0023901236    279726.26    289316.41 -8.8161391e-05 0.0013904589 -0.00016113227 
  126000     2.634501 0.0024108478    279726.26    292978.61 -0.00010057605 0.0014228794 -0.00015031027 
  127000    2.6314068 0.0023976269    279726.26    296689.75 -7.1437549e-05 0.0013622644 -0.00011508351 
  128000    2.6327048 0.0023960213    279726.26    300458.98 -9.5438543e-05 0.0013806318 -0.00014811193 
  129000    2.6319667 0.0023964172    279726.26    304279.13 -0.00010344111 0.0013589481 -7.9937551e-05 
  130000    2.6340901 0.0023927015    279726.26     308140.9 -0.00010928007 0.0013470985 -0.00010084805 
  131000    2.6314365 0.0023978086    279726.26    312014.48 -6.8980968e-05 0.0013473457 -2.9779481e-05 
  132000    2.6350173  0.002436185    279726.26    315922.99 3.209801e-06  0.001299063 -8.0023038e-05 
  133000    2.6350354 0.0023955043    279726.26    319853.56 5.8324857e-05 0.0014062354 -0.00017248821 
  134000    2.6339883  0.002394208    279726.26    323830.39 5.5938424e-05 0.0013907804 -0.00019551224 
  135000    2.6319175 0.0023967728    279726.26     327859.7 9.2624915e-05 0.0014372719 -0.0002123026 
  136000    2.6314671 0.0023971537    279726.26    331937.78 -1.6421406e-05 0.0013386455 -0.00023254045 
  137000    2.6359958   0.00239227    279726.26    336020.88 -5.9045129e-05 0.0013918409 -0.0002798639 
  138000    2.6330936 0.0023944291    279726.26    340099.85 -4.593653e-05 0.0013908504 -0.00023231163 
  139000    2.6386219 0.0024062138    279726.26    344185.65 -4.3270428e-05 0.0013384061 -0.00028152463 
  140000    2.6322855 0.0023959545    279726.26    348129.82 6.0911638e-05 0.0012268835 -0.00029855914 
  141000    2.6320387 0.0023964444    279726.26    351918.48 0.00010934813 0.0012114946 -0.00032329441 
  142000    2.6337157 0.0023950699    279726.26    355649.62 9.6026488e-05 0.0011634973 -0.00033295737 
  143000    2.6331244 0.0023947915    279726.26    359388.44 2.622455e-05 0.0010260166 -0.00031524499 
  144000    2.6350122 0.0023986847    279726.26     363126.6 7.999224e-05 0.00099813761 -0.0002870729 
  145000    2.6340069 0.0023935544    279726.26       366917 9.3185326e-05 0.00096840677 -0.00029120206 
  146000    2.6323546 0.0023956834    279726.26     370760.4 9.2317387e-05 0.00093053075 -0.00029292817 
  147000    2.6329119 0.0023962459    279726.26    374666.65 0.00010195986 0.00094963292 -0.00025889421 
  148000    2.6364055 0.0024133113    279726.26    378617.03 0.00012712278 0.00095224091 -0.00025085371 
  149000     2.631286 0.0023979484    279726.26    382549.55 9.6430691e-05 0.00097920709 -0.00023197955 
  150000    2.6353082 0.0023917206    279726.26    386530.67 0.00011206157 0.00097078278 -0.00023870985 
  151000    2.6318278 0.0023967733    279726.26    390532.47 0.00011112568 0.00099105922 -0.00024726479 
  152000    2.6314716 0.0023972759    279726.26    394508.84 0.00012242783 0.0009224884 -0.00024564539 
  153000    2.6347858 0.0024055762    279726.26     398497.2 0.0001430615 0.00091800808 -0.00021060721 
  154000     2.636153 0.0023996099    279726.26    402503.56 0.00016449697 0.00091361748 -0.00026876746 
  155000    2.6334074 0.0023955627    279726.26    406537.46 0.0002068828 0.00074751526 -0.0002222439 
  156000    2.6326874 0.0023953108    279726.26    410607.43 0.00021048595 0.00068805341 -0.00023778491 
  157000    2.6322114 0.0023966221    279726.26    414720.13 0.0002290813 0.00067976831 -0.00024773733 
  158000    2.6384455 0.0023903337    279726.26    418886.26 0.00019986491 0.00065910195 -0.00029646387 
  159000    2.6333586 0.0023941991    279726.26    423108.56 0.00026239593 0.0006370736 -0.00028361191 
  160000    2.6338472 0.0024079194    279726.26    427415.89 0.00024102477 0.0006101691 -0.00017336719 
  161000    2.6334405  0.002395442    279726.26    431719.34 0.00025635097 0.0006221428 -0.00014986485 
  162000    2.6391659  0.002392454    279726.26    435881.29 0.00024607518 0.00061330875 -5.5331036e-05 
  163000    2.6362767    0.0023945    279726.26    440035.59 0.00022450252 0.00041347796 -0.00012749854 
  164000      2.63426 0.0023940034    279726.26    444118.42 0.00021866598 0.0004442765 -9.6278777e-05 
  165000    2.6320768 0.0023961089    279726.26    448228.78 0.00020754736 0.0004570135 -0.00012389407 
  166000     2.633516  0.002394036    279726.26    452361.96 0.00018501618 0.00045521673 -0.0001285785 
  167000    2.6213398 0.0024916729    279726.26    456463.13 0.00033262258 0.00046819821 -0.00032356156 
  168000    2.6351781  0.002396425    279726.26    460526.34 0.00022429311 0.00049733802 -0.00013812575 
  169000    2.6351075 0.0023936655    279726.26    464569.52 0.00025798691 0.00049944686 -0.00011904177 
  170000    2.6342306 0.0023986006    279726.26    468651.91 0.00015934098 0.00042448003 -8.5573155e-05 
  171000     2.632206 0.0023960536    279726.26    472718.18 6.1328136e-05 0.00040014189 -4.310362e-05 
  172000    2.6318442 0.0023971872    279726.26    476789.75 0.00011003531 0.00042868523 8.8130362e-06 
  173000    2.6360568 0.0024037684    279726.26    480870.37 0.00012642123 0.00046893554 -1.8172133e-05 
  174000    2.6349512 0.0023969965    279726.26    485013.26 0.00011658086 0.00048393761 6.5346879e-06 
  175000    2.6354333 0.0023950404    279726.26    489173.84 0.00014817755 0.00044604986 5.4375718e-05 
  176000    2.6354146 0.0024066674    279726.26    493313.46 0.00012837778 0.00053950347 -1.82868e-05 
  177000    2.6417531  0.002396868    279726.26    497381.85 -7.5088939e-05 0.00046555636 -5.6497986e-05 
  178000    2.6395846 0.0023995014    279726.26    501414.28 -7.1524583e-07 0.0005044624 -6.5648207e-05 
  179000    2.6320247 0.0023963395    279726.26    505386.78 4.8799038e-05 0.00047538027 -0.00012114154 
  180000    2.6354272  0.002399121    279726.26    509376.36 1.3367158e-05 0.00048208267 -4.9803081e-05 
  181000    2.6339477 0.0024077042    279726.26    513449.99 0.00012993055 0.00041279338 1.7402697e-06 
  182000    2.6353694 0.0023927801    279726.26    517613.04 0.00012179756 0.00041831615 3.219172e-05 
  183000    2.6349379 0.0024072055    279726.26    521744.22 0.00018822232 6.4338949e-05 8.0968236e-05 
  184000    2.6344815 0.0023993663    279726.26    525684.81 0.00020101868 9.3523775e-06 -6.1147877e-05 
  185000    2.6316624 0.0023972989    279726.26    529556.51 2.7818859e-05 -0.00026800299 -9.7596876e-05 
  186000    2.6322599 0.0023962171    279726.26    533349.82 5.7843208e-05 -0.00024802687 -9.1104029e-05 
  187000    2.6327221 0.0023949837    279726.26    537170.52 2.5125846e-05 -0.00027191677 -0.00013191397 
  188000    2.6282818 0.0024604107    279726.26    541036.15 0.00013732134 -0.00039155242 -0.00017439454 
  189000    2.6314657 0.0023977639    279726.26       544815 4.7263977e-05 -0.00026785953 -8.000274e-05 
  190000    2.6374062 0.0024379153    279726.26    548611.85 8.6350747e-05 -0.00019915962 -3.7454782e-06 
  191000    2.6312932 0.0023975937    279726.26    552418.09 8.8434882e-05 -0.00031236972 -6.7259165e-05 
  192000    2.6347695 0.0023951251    279726.26    556280.34 5.627086e-05 -0.00028850823 1.1211416e-05 
  193000    2.6341867 0.0023964066    279726.26    560178.87 8.4078935e-05 -0.00033411697 6.1614579e-05 
  194000    2.6383626 0.0023973538    279726.26    564062.12 7.1126375e-05 -0.00025445835 0.00010304877 
  195000    2.6352198 0.0024062417    279726.26    567948.11 6.266695e-05 -0.00027848222 5.3904426e-05 
  196000    2.6342685 0.0023921775    279726.26    571851.15 -4.1783003e-05 -9.4666486e-05 0.00015281042 
  197000    2.6321965 0.0023963005    279726.26    575704.38 -5.2468786e-05 -6.8234524e-05 0.00015247334 
  198000    2.6316065 0.0023970398    279726.26    579429.09 -1.6535015e-05 -0.00018980475 0.00013872697 
  199000    2.6337279 0.0023946206    279726.26    583162.56 -2.5959828e-05 -0.00016011805 0.0001658301 
  200000     2.634647 0.0024023644    279726.26    586898.08 -3.8095931e-05 -0.00018649214 0.00025232804 
  201000    2.6387621 0.0023894006    279726.26    590656.64 -0.00013054311 -0.0001831023 0.00012200675 
  202000    2.6320078 0.0023963448    279726.26    594430.65 -9.3175302e-05 -0.00014169514 0.00012279615 
  203000    2.6330091 0.0023956904    279726.26    598182.19 -6.301146e-05 -0.00012025234 0.00013645632 
  204000    2.6323454 0.0023963527    279726.26    601917.11 -0.00010435294 -0.00042952271 6.2361561e-05 
  205000    2.6329768 0.0024147942    279726.26    605640.34 -0.00016001739 -0.00042787623 9.6843947e-05 
  206000    2.6313333 0.0023979863    279726.26    609348.13 -0.00010111665 -0.00038939115 3.3517348e-05 
  207000    2.6338162 0.0023952263    279726.26    613097.89 -0.00010080697 -0.00034756112 -2.7430247e-05 
  208000    2.6354087 0.0023987499    279726.26     616850.9 -0.00011461941 -0.00036583095 -4.3078583e-05 
  209000    2.6310749 0.0024476751    279726.26    620597.94 -0.0001148358 -0.00036583175 -3.5592794e-05 
  210000     2.635019 0.0023922247    279726.26    624310.76 2.8965496e-05 -0.00043253935 -5.4014334e-05 
  211000    2.6333497 0.0023943404    279726.26    628096.24 -1.7731449e-05 -0.00045941505 -2.1049308e-05 
  212000    2.6370139 0.0023892676    279726.26    631958.85 -6.2233516e-05 -0.00042026344 1.5646002e-05 
  213000    2.6346793 0.0024022505    279726.26    635794.96 -1.1784755e-05 -0.00042146061 -2.8002096e-06 
  214000    2.6351586 0.0023919863    279726.26    639701.49 1.7078106e-05 -0.00039757451 -5.0186893e-06 
  215000    2.6333375 0.0023939991    279726.26    643640.37 5.9280724e-05 -0.00038855592 -2.2660639e-05 
  216000    2.6323397 0.0023951945    279726.26     647564.9 0.00011679491 -0.00037355416 -0.00011743333 
  217000    2.6328893 0.0023948509    279726.26    651482.36 0.0001863222 -0.00042073372 -0.00015581178 
  218000    2.6322252 0.0023960227    279726.26     655466.8 0.00018112448 -0.00038352633 -0.00014585819 
  219000    2.6312965 0.0023980468    279726.26    659514.75 0.0002114699 -0.00036647714 -0.00014775736 
  220000    2.6396307 0.0023900172    279726.26    663600.83 0.00037442841 -5.5217577e-05 -0.00012723232 
  221000    2.6336456 0.0024047415    279726.26    667607.58 0.00037729278 -0.00021284871 -0.0001463891 
  222000    2.6365431 0.0023990905    279726.26    671652.08 0.00048834542 -0.00028851133 -0.00012841892 
  223000    2.6374235 0.0024026472    279726.26    675751.95 0.00047211419 -0.0002912241 -9.2064738e-05 
  224000    2.6331123 0.0023957885    279726.26    679865.38 0.00045610552 -0.00032632418 -0.00018243294 
  225000    2.6341558 0.0024573484    279726.26    683965.42 0.00044640263 -0.00042713814 -0.00016721621 
  226000    2.6328103 0.0024162075    279726.26    688058.81 0.00047267977 -0.00040589913 -0.00019596998 
  227000    2.6322286 0.0023967134    279726.26    692170.11 0.00042468635 -0.00030380497 -0.00020329564 
  228000    2.6325576 0.0023956076    279726.26    696335.86 0.00049955026 -0.00026754988 -0.00015836479 
  229000    2.6414915 0.0023885985    279726.26    700533.07 0.00048974131 -0.00026663112 -0.00018862262 
  230000    2.6362012 0.0023978341    279726.26    704780.14 0.00048782742 -0.00027044017 -0.00024831098 
  231000    2.6359321 0.0023922093    279726.26    709064.92 0.00052324217 -0.00032080792 -0.00022859765 
  232000    2.6362414 0.0024137083    279726.26    713271.51 0.00048064641 -0.0004208652 -0.00040146484 
  233000    2.6365382 0.0023978253    279726.26     717439.2 0.00055706484 -0.00035787897 -0.00038699673 
  234000    2.6329575 0.0023949491    279726.26    721568.75 0.00052371784 -0.00038592649 -0.00036350492 
  235000    2.6332867 0.0024190034    279726.26    725713.62 0.00058979398 -0.00042375859 -0.00036426903 
  236000    2.6322525 0.0023958183    279726.26    729763.85 0.0006229623 -0.0003104274 -0.00060723617 
  237000    2.6315301 0.0023972874    279726.26    733790.46 0.00062035259 -0.00031856782 -0.0005778059 
  238000    2.6405579 0.0023915383    279726.26    737847.71 0.0006137204 -0.00028962421 -0.00051038883 
  239000    2.6329178 0.0023947399    279726.26    741744.78 0.00059905619 -8.1315507e-05 -0.00033768877 
  240000    2.6312211 0.0023980748    279726.26    745674.68 0.00059988759 -7.8710405e-05 -0.00033618338 
  241000    2.6338275 0.0023941322    279726.26    749666.16 0.00062946666 -6.7668426e-05 -0.00032593901 
  242000    2.6364853 0.0023950711    279726.26    753641.14 0.00067665734 -0.00011577519 -0.00021577849 
  243000    2.6330127 0.0023951931    279726.26    757607.47 0.00067618911 6.8276307e-05 -0.00014485965 
  244000    2.6320413  0.002396431    279726.26    761611.63 0.00064264367 4.6150257e-05 -0.00015282888 
  245000    2.6322851 0.0023954165    279726.26    765523.27 0.00058190617 0.00011013425 -5.6622119e-05 
  246000    2.6327265 0.0023950647    279726.26    769366.26 0.00058207117 0.0001009416 -1.7331918e-05 
  247000    2.6327462 0.0023949016    279726.26    773146.33 0.00057478863 7.4900045e-05 -1.7235147e-06 
  248000    2.6376046 0.0023928235    279726.26    776940.78 0.00059367736 0.00011766514 1.6304234e-05 
  249000    2.6377588 0.0023969623    279726.26    780766.98 0.00056799705 0.00022412713 3.4127543e-05 
  250000    2.6323302 0.0023958527    279726.26    784586.75 0.00058621655 0.00024624647 7.3358831e-05 
  251000     2.638038 0.0024094193    279726.26    788380.19 0.0005304899 0.00048111306 5.3496814e-06 
  252000    2.6354855 0.0023925591    279726.26     792174.2 0.00047732064 0.00045647661 -5.0880915e-05 
  253000    2.6317369 0.0023970826    279726.26    796004.17 0.00045237871 0.00043033595 -7.9105556e-05 
  254000     2.633909 0.0023945595    279726.26    799867.22 0.00039187409 0.00037108305 -0.00016246067 
  255000    2.6325106 0.0023954664    279726.26    803716.58 0.00034372277 0.00021938081 -0.00029882798 
  256000    2.6323364 0.0023961584    279726.26    807573.14 0.00034705977 0.0002463255 -0.00023302244 
  257000    2.6325898 0.0023955837    279726.26    811454.76 0.00045249503 0.00027055303 -0.00012085892 
  258000    2.6353412 0.0023978457    279726.26    815341.13  0.000499819 0.00028784422 -0.0002421358 
  259000    2.6346629 0.0023949948    279726.26    819231.42 0.00050759235 0.00026194171 -0.00015312543 
  260000    2.6410694 0.0023983507    279726.26    823137.76 0.00050768825 0.00031521623 -9.8497391e-05 
  261000    2.6330808 0.0023953176    279726.26    827095.14 0.0005023623 0.00033823973 -7.236725e-05 
  262000    2.6341675 0.0023938918    279726.26    831071.68 0.00049920484 0.00033884126 -2.4449594e-05 
  263000    2.6326423 0.0023953804    279726.26    835021.49 0.00045809808 0.00030874079 -5.9380864e-05 
  264000    2.6383885 0.0023897523    279726.26    838976.17 0.00040077629 0.00030147289 -3.6339641e-05 
  265000    2.6343771 0.0024092788    279726.26    842963.43 0.00044839038 0.00034773015 -0.00012864981 
  266000    2.6343679 0.0024290898    279726.26    846973.22 0.00029152141 0.00026361304 0.00020688766 
  267000    2.6365543 0.0023958041    279726.26    851003.08 0.00029060774 0.00031630648 0.0001169744 
  268000    2.6349309  0.002391741    279726.26    854860.49 0.00022725641 0.00034618674 0.00016208443 
  269000    2.6354835 0.0023961727    279726.26     858585.5 0.00023595732 0.00028868239 0.00014473109 
  270000    2.6323843 0.0023959965    279726.26    862409.23 0.00020206811 0.00032267978 0.00013927329 
  271000    2.6360238 0.0023930034    279726.26    866219.95 0.0002260709 0.00034237605 0.00019763896 
  272000    2.6335335 0.0023949611    279726.26    869974.36 0.00036785218 0.00038458715 0.00020188067 
  273000    2.6342641 0.0024550804    279726.26    873705.36 0.00020955787 0.00021740087 0.00028166877 
  274000    2.6328135 0.0023951694    279726.26    877493.76 0.00027921878 0.0002724143 0.00029473955 
  275000    2.6352592 0.0023926212    279726.26    881361.41 0.00036302261 0.00018819088 0.00023108171 
  276000    2.6335814 0.0023936326    279726.26    885219.61 0.00037796824 7.0810023e-05 0.00023852054 
  277000     2.634212 0.0023926352    279726.26    889135.83 0.00039352369 4.6443371e-05 0.00020835448 
  278000    2.6318695 0.0024261033    279726.26    893104.79 0.00022642601 -0.0001165557 0.00017530976 
  279000     2.633768 0.0024128478    279726.26    897104.59 0.00029289523 9.0648337e-05 0.00021372429 
  280000    2.6389033 0.0023927146    279726.26    901183.08 0.00028893482 8.7643287e-05 0.00017975103 
  281000    2.6324505  0.002395406    279726.26    905269.78 0.00030300808 0.00011937238 0.00016963535 
  282000    2.6362051  0.002406746    279726.26    909398.38 0.00026330858 0.00010524495 0.00020763379 
  283000    2.6350087  0.002391599    279726.26    913475.63 0.00028684127 6.7654252e-05 0.00027799401 
  284000    2.6323667 0.0023957474    279726.26    917522.39 0.00029242021 2.5370702e-05 0.00023138551 
  285000    2.6333635 0.0023949699    279726.26     921635.7 0.00028932814 3.808334e-05 0.00021190474 
  286000    2.6299027 0.0024717319    279726.26     925739.9 0.00045365649 8.0247623e-05 0.0004928315 
  287000     2.635452 0.0023924659    279726.26     929844.6 0.00036770445 0.00024961901 0.00027551967 
  288000    2.6324765 0.0024355607    279726.26    934054.43 0.00052667009 0.00032925034 0.00044995162 
  289000    2.6339888 0.0023934498    279726.26    938284.19 0.00034086635 0.00028897979 0.00032699235 
  290000    2.6333391  0.002393962    279726.26    942590.42  0.000157567 0.00034520307 0.0003772461 
  291000    2.6363578  0.002413408    279726.26    946935.21 0.00026662507 0.00032464768 0.00034204467 
  292000    2.6386132 0.0023931854    279726.26    951320.73 0.00019442709 0.0002693337 0.00033964272 
  293000    2.6335551 0.0023946716    279726.26    955780.57 0.00021237675 0.00017636651 0.0003443673 
  294000    2.6353551 0.0023976043    279726.26    960286.26 0.00022682235 0.00020233668 0.00034158451 
  295000    2.6349488 0.0023935142    279726.26     964827.9 0.00030708984 0.00026076139 0.00047667362 
  296000    2.6345299 0.0023928399    279726.26    969452.37 0.00036014655 0.00016458882 0.00039345639 
  297000     2.633921 0.0024026388    279726.26    973921.72 0.00019572308 0.00012501939 0.00049576706 
  298000    2.6376892 0.0023977088    279726.26    978394.48 0.0001393064 0.00015327615 0.00049763354 
  299000    2.6377025  0.002389168    279726.26    982891.51 0.00016799148 8.3159744e-05 0.00055760184 
  300000     2.632463 0.0023956829    279726.26    987205.63 0.00022738178 0.00013613722 0.00041450523 
  301000    2.6344905 0.0023924034    279726.26    991510.81 0.00018434869 0.0001075807 0.00044702678 
  302000    2.6348908 0.0024342901    279726.26     995803.6 0.00033421192 0.0002275574 0.00068144878 
  303000    2.6368304 0.0023933421    279726.26    1000216.1 0.00029630542 5.7706217e-06 0.00053735894 
  304000    2.6328871 0.0023953474    279726.26    1004743.1 0.00042687358 -6.2955287e-05 0.0005594684 
  305000    2.6353438  0.002393587    279726.26      1009296 0.00042843029 -0.00014731927 0.00058152563 
  306000    2.6363783 0.0023930478    279726.26      1013789 0.0004001951 -0.00016803386 0.00061854025 
  307000     2.629145 0.0024444181    279726.26    1018307.8 0.00065787281 -6.869205e-05 0.0005458478 
  308000    2.6316538 0.0023971036    279726.26    1022839.3 0.00054892721 -3.4688398e-05 0.00051741281 
  309000    2.6317934 0.0023971427    279726.26    1027402.1 0.00054252178 -5.1970883e-05 0.0004930056 
  310000    2.6360565 0.0023937158    279726.26    1031971.2 0.00052532191 -0.00014978566 0.00058304675 
  311000    2.6197134 0.0025145373    279726.26    1036551.9 0.0005588674 -0.00013240288 0.00048622049 
  312000    2.6322845 0.0023951958    279726.26    1041092.3 0.00051301011 -2.0928602e-05 0.00039238342 
  313000    2.6318007 0.0023969649    279726.26    1045542.9 0.0005819166 -3.6643741e-05 0.00034341655 
  314000    2.6325895 0.0023942237    279726.26      1049997 0.00055417019 -2.2244105e-05 0.00031520945 
  315000    2.6317758 0.0023971563    279726.26    1054427.9 0.00053624216 -4.6510469e-05 0.00028480336 
  316000    2.6333911 0.0023941447    279726.26    1058871.2  0.000519833 -3.6788187e-05 0.0002765065 
  317000    2.6351456 0.0023941632    279726.26    1063134.7 0.00058149017 5.7344452e-05 0.00019725918 
  318000    2.6338702 0.0023940392    279726.26    1067386.2 0.00055452243 3.7866279e-05 0.00020164135 
  319000    2.6346223 0.0024060148    279726.26    1071686.9 0.00058322151 1.3607082e-05 0.00018824739 
  320000    2.6342056 0.0024126269    279726.26    1076066.8 0.00048659609 2.1850637e-07 0.00019469216 
  321000    2.6331671 0.0023950901    279726.26    1080444.1 0.00048966304 -5.5343533e-05 0.00024015011 
  322000     2.632339 0.0023957732    279726.26    1084790.1 0.00050542634 -7.9642947e-05 0.00027453727 
  323000    2.6338863 0.0023957909    279726.26      1089099 0.00048578166 -8.10797e-05 0.00029891261 
  324000    2.6356184 0.0024010172    279726.26    1093437.1 0.00039740895 -7.2115098e-05 0.00040605392 
  325000    2.6372099 0.0023907745    279726.26      1097810 0.00037419533 -0.00011491694 0.00037932341 
  326000    2.6332136 0.0023947662    279726.26    1102197.6 0.00039141705 -8.0427898e-05 0.00041351248 
  327000    2.6357811 0.0023900041    279726.26    1106599.6 0.0003991776 -0.00010408612 0.00042831304 
  328000    2.6285254 0.0024506971    279726.26      1110898 0.00031400305 -6.618652e-05 0.00051554299 
  329000    2.6377784 0.0023884604    279726.26    1115208.6 0.00051734325 -0.00011838787 0.00052068175 
  330000    2.6330434 0.0023949496    279726.26    1119567.1 0.00051023434 -0.00013407279 0.00056274808 
  331000    2.6359684 0.0024396357    279726.26    1123979.8 0.00056098679 -2.5753142e-05 0.00053559652 
  332000     2.638094  0.002449086    279726.26    1128464.1 0.00032568613 -8.8973942e-05 0.00067457594 
  333000    2.6317399 0.0023969401    279726.26    1133018.3 0.00042681745 -0.00012208428 0.00052569072 
  334000    2.6355424 0.0023912375    279726.26    1137629.7 0.00044150219 -0.00011046539 0.00048427013 
  335000    2.6347184 0.0023951552    279726.26    1142217.2 0.00039738223 -0.00021021254 0.00048943109 
  336000    2.6330013  0.002395372    279726.26    1146866.6 0.00035205881 -0.00019001603 0.00050261586 
  337000    2.6325669 0.0023954826    279726.26    1151534.4 0.00038150635 -0.0001470362 0.00052553667 
  338000    2.6385888 0.0023939484    279726.26    1156205.9 0.00037009535 -0.00018754206 0.0004683236 
  339000    2.6376949 0.0023999131    279726.26      1160788 0.00039816317 -0.00017873952 0.00046240392 
  340000    2.6339297 0.0023935601    279726.26    1165432.3 0.00034749282 -0.00018628946 0.00046873172 
  341000    2.6388946 0.0023961324    279726.26    1170059.1 0.00040311936 -0.00029989023 0.0004174916 
  342000    2.6330033 0.0023949895    279726.26    1174636.2 0.00035620748 -0.00022791398 0.00032108067 
  343000    2.6349278 0.0023929099    279726.26    1179072.5 0.00036070543 -0.0001265313 0.00044300527 
  344000    2.6371046 0.0023904858    279726.26    1183385.7 0.00040846585 -0.00022454024 0.0005059189 
  345000    2.6367596 0.0023887696    279726.26    1187597.4 0.00039088084 -0.00024250559 0.00050522774 
  346000    2.6369606 0.0024001909    279726.26    1191838.1 0.00038897768 -0.00021450526 0.00043517005 
  347000    2.6317462 0.0023969404    279726.26    1196013.7 0.00040892759 -0.00021462565 0.00049114924 
  348000    2.6411647 0.0024074423    279726.26    1200256.2 0.00032244755 -0.00022816983 0.00046239663 
  349000    2.6324566 0.0023960656    279726.26    1204526.1 0.00035681805 -0.00027277236 0.00057323257 
  350000     2.638589 0.0024186362    279726.26    1208791.1 0.00038775256 -0.0002717036 0.00059253103 
  351000    2.6353714 0.0023922101    279726.26    1213062.5 0.00040592447 -0.00020879748 0.0005275556 
  352000    2.6328014 0.0023948269    279726.26    1217322.8 0.00039924609 -0.00027847884 0.00060152797 
  353000    2.6347164 0.0023932879    279726.26    1221588.6 0.00039748819 -0.00031992378 0.0006020591 
  354000    2.6339378 0.0023933559    279726.26    1225896.2 0.00041335166 -0.00032877947 0.00066523426 
  355000    2.6341334 0.0023942955    279726.26    1230213.3 0.00040239839 -0.00034364012 0.00070533559 
  356000    2.6358303 0.0023956051    279726.26    1234512.3 0.00040802891 -0.00034236098 0.00069214672 
  357000    2.6324356 0.0023958004    279726.26    1238764.3 0.00043768677 -0.00031340344 0.00068240436 
  358000    2.6361762 0.0024281775    279726.26    1243041.1 0.00041295893 -0.00034723198 0.00064347352 
  359000     2.641529 0.0023950528    279726.26    1247193.5 0.00047572804 -0.00028754683 0.00053390669 
  360000    2.6354955 0.0023969357    279726.26      1251287 0.00046719069 -0.000340006 0.00062900071 
  361000    2.6340162  0.002397618    279726.26    1255361.5 0.00042804429 -0.00035099249 0.00061557423 
  362000    2.6352299  0.002406126    279726.26    1259405.9 0.00028864693 -0.00041047354 0.00061455882 
  363000    2.6316862  0.002396954    279726.26    1263416.2 0.00021853848 -0.00045387347 0.00046662213 
  364000     2.632535 0.0023952791    279726.26    1267380.7 0.00020405764 -0.00041606949 0.00041382861 
  365000    2.6320162 0.0023967608    279726.26    1271438.3 0.00018002345 -0.00042460707 0.00041894529 
  366000    2.6342647 0.0023955976    279726.26    1275580.3 0.00020714523 -0.00046523165 0.00043696772 
  367000    2.6360537 0.0023934468    279726.26    1279806.5 0.00021920638 -0.00044858909 0.00041823907 
  368000    2.6334171 0.0023957559    279726.26    1284065.9 0.00018597964 -0.00045898628 0.00042654252 
  369000    2.6320198 0.0023961229    279726.26    1288383.3 0.00014978177 -0.00045820379 0.00042544471 
  370000    2.6345344 0.0024318461    279726.26    1292727.4 0.00012054694 -0.00049977596 0.00041173171 
  371000    2.6350912 0.0024058586    279726.26    1297103.4 0.00011411187 -0.00050776868 0.00042626945 
  372000    2.6349205 0.0024244745    279726.26    1301541.1 6.9809806e-05 -0.00028374908 0.00042571727 
  373000    2.6322206 0.0023957731    279726.26    1305875.5 9.196434e-05 -0.00040721672 0.00035006372 
  374000    2.6352087 0.0023970459    279726.26    1310199.1 0.00022011561 -0.00046660218 0.0003373866 
  375000    2.6396418 0.0023912629    279726.26    1314513.5 0.00023137636 -0.00045050336 0.00037488872 
  376000    2.6362464 0.0024051004    279726.26    1318816.7 0.00020108079 -0.00053666723 0.0003158729 
  377000    2.6329333 0.0023946302    279726.26    1323213.6 0.0001967427 -0.00054512811 0.00025752402 
  378000    2.6362748 0.0023921128    279726.26      1327673 0.00020105301 -0.00053770869 0.00029627628 
  379000    2.6348209 0.0023914911    279726.26    1332240.9 0.00024327434 -0.00053546056 0.00024166574 
  380000     2.631945 0.0023969301    279726.26      1336862 0.00011909483 -0.00064401847 -1.1387863e-05 
  381000    2.6345474 0.0023941493    279726.26    1341502.8 0.00013009677 -0.00064209504 -6.4223342e-05 
  382000     2.631746  0.002396469    279726.26    1346103.9 0.00015921476 -0.00070425785 -0.00012286474 
  383000    2.6325816 0.0023953786    279726.26    1350636.4 0.00017668148 -0.0006765789 -0.00010153253 
  384000    2.6328237 0.0023947739    279726.26      1355137 0.00015843193 -0.00063189332 -9.1232607e-05 
  385000    2.6335859 0.0023932423    279726.26    1359645.7 0.00015281911 -0.00061835848 -9.4528557e-05 
  386000     2.636102 0.0023960873    279726.26    1364152.3 0.00017061713 -0.00060651386 -5.4621307e-05 
  387000     2.632608 0.0023956313    279726.26    1368694.7 0.0001354039 -0.000628019 -8.1228337e-05 
  388000    2.6332578 0.0023940403    279726.26    1373217.7 0.00019164926 -0.00056942717 -8.3052098e-05 
  389000    2.6347378 0.0023927829    279726.26    1377768.5 0.00019666477 -0.00055117662 -6.9218777e-05 
  390000    2.6325522  0.002395502    279726.26    1382146.6 0.00022830491 -0.00058133668 3.035099e-05 
  391000    2.6380361 0.0024026309    279726.26    1386524.3 0.00018756118 -0.00060082891 5.5135411e-05 
  392000    2.6336042 0.0023937186    279726.26    1390967.8 0.00010085694 -0.00059968896 9.1884748e-06 
  393000    2.6334284 0.0023945015    279726.26    1395490.1 7.2230651e-05 -0.00064115879 -6.0440452e-07 
  394000    2.6337471 0.0023935384    279726.26    1399955.3 9.7000949e-05 -0.00043686091 0.00012280911 
  395000    2.6347002  0.002395414    279726.26    1404401.7 0.00010963978 -0.00045836487 0.00017286237 
  396000    2.6290568 0.0024587371    279726.26    1408859.1 -3.3203863e-05 -0.00055972883 0.00035350246 
  397000    2.6321264 0.0023958499    279726.26      1413226 0.00011564589 -0.00045142251 7.2189759e-05 
  398000    2.6357291 0.0023981346    279726.26    1417552.5 0.00010423477 -0.00048269818 5.789304e-05 
  399000    2.6322896 0.0023967252    279726.26    1421869.6 3.6724108e-05 -0.00043954857 8.5831936e-05 
  400000    2.6321798 0.0023965278    279726.26    1426211.8 2.2030836e-05 -0.00035077901 9.5842309e-05 
  401000    2.6317229 0.0024250476    279726.26    1430455.8 -9.5121216e-06 -0.00034445149 7.5922858e-05 
  402000    2.6338506 0.0023930502    279726.26    1434664.6 6.7353036e-05 -0.00038615897 -1.5369689e-06 
  403000     2.632445 0.0023955161    279726.26    1438833.9 -9.049732e-06 -0.00031302491 4.6694893e-05 
  404000    2.6256708  0.002471244    279726.26    1443033.5 -5.5840958e-05 -0.00024360625 0.00018432588 
  405000    2.6382449 0.0023916684    279726.26    1447109.8 -2.0823939e-05 -0.00026189758 4.5676547e-05 
  406000    2.6363428 0.0023964726    279726.26      1451171 -8.7217236e-05 -0.0003374427 6.0551561e-05 
  407000    2.6364328 0.0023984637    279726.26      1455278 -0.00013310322 -0.00036274253 -3.5580516e-05 
  408000    2.6323273 0.0023960233    279726.26    1459377.7 -0.00012628219 -0.00030826405 -2.9170216e-05 
  409000    2.6366861 0.0023907359    279726.26    1463430.5 -8.8645159e-05 -0.00024262226 5.1005596e-05 
  410000    2.6340931 0.0024044618    279726.26    1467489.7 -8.4442928e-05 -0.00026445552 6.2121326e-05 
  411000    2.6327342 0.0023947545    279726.26    1471570.6 -6.3160686e-05 -0.00019740981 0.00014719453 
  412000    2.6308319 0.0024325439    279726.26    1475743.8 -8.6475305e-05 -0.00019853251 0.00011815706 
  413000    2.6348575 0.0023929123    279726.26      1479932 -7.3578339e-05 -0.00021683351 0.00014872894 
  414000    2.6339447 0.0023940648    279726.26    1484216.2 -8.795863e-05 -0.00026305977 0.00010240839 
  415000    2.6325328 0.0024408179    279726.26    1488516.5 -0.00015890804 -0.00020566113 2.7292106e-05 
  416000    2.6332688 0.0023937564    279726.26    1492696.2 -5.2339297e-05 -0.00015911295 -0.00013164731 
  417000    2.6364344 0.0024011726    279726.26    1496993.8 -0.00012910011 -0.00015620784 -0.00012901136 
  418000     2.631722 0.0023973864    279726.26    1501140.8 -2.2795269e-05 -6.8389751e-05 -0.00016334003 
  419000     2.635225  0.002391782    279726.26    1505291.8 2.5637502e-05 -0.00012795808 -0.00012883989 
  420000    2.6334373 0.0023938675    279726.26    1509509.6 3.4878697e-05 -0.00013438282 -0.00018229692 
  421000    2.6356959   0.00242055    279726.26    1513797.8 0.00012006934 -0.00030347319 -0.00013039766 
  422000    2.6364303 0.0023907873    279726.26    1518096.5 5.8139008e-05 -0.00015126092 -0.00017151715 
  423000    2.6324048 0.0023960347    279726.26    1522389.7 1.8634589e-05 -0.00014383227 -0.00015919992 
  424000    2.6341822 0.0023921647    279726.26    1526758.4 0.00014498294 -0.0001037443 -0.0001101727 
  425000    2.6330585 0.0023946277    279726.26    1531189.2 3.6710897e-05 -0.0001740501 -0.00019002773 
  426000     2.632086 0.0023962616    279726.26    1535602.5 -5.8258276e-05 -0.00018520157 -0.0002180351 
  427000    2.6312281 0.0023982422    279726.26    1540028.7 -0.00014956193 8.9709371e-07 -9.5069615e-05 
  428000    2.6353157 0.0024043118    279726.26    1544427.9 -0.00020932207 -6.121355e-06 -0.00013147681 
  429000    2.6365967 0.0023887417    279726.26    1548644.2 -0.00015632848 -8.4286498e-05 -0.00013786613 
  430000    2.6350172   0.00239209    279726.26    1552731.2 -0.00023107276 -0.000281605 1.6654979e-05 
  431000    2.6341845 0.0023931998    279726.26    1556896.5 -0.00022957451 -0.00033536144 8.5497948e-05 
  432000    2.6360621 0.0023931593    279726.26      1560998 -0.00017725877 -0.0003482483 0.00010455513 
  433000    2.6323905 0.0023956606    279726.26      1565049 -0.00020179287 -0.00035778327 7.1793738e-05 
  434000    2.6336352 0.0023944821    279726.26    1569140.1 -0.00014224671 -0.00037231454 0.0001234066 
  435000    2.6313094 0.0023980991    279726.26    1573289.9 -0.00016108236 -0.00042092565 0.00013887372 
  436000    2.6361162 0.0024034102    279726.26      1577456 -0.00020904717 -0.0003700496 0.00011537462 
  437000    2.6350638 0.0023928404    279726.26    1581608.7 -0.00012553281 -0.00052769881 0.00017231338 
  438000    2.6339566 0.0023939935    279726.26      1585819 -0.00016898801 -0.00054057373 0.00024765133 
  439000    2.6322674 0.0023963046    279726.26      1590089 -0.0001531389 -0.00055371143 0.00028918518 
  440000    2.6315563 0.0023975462    279726.26    1594362.4 -8.1855416e-05 -0.00051656784 0.00031548017 
  441000    2.6357895 0.0023944344    279726.26    1598601.9 -7.0705682e-05 -0.00051680961 0.00029664333 
  442000     2.633263 0.0023941396    279726.26    1603009.2 1.2804597e-05 -0.00055458121 0.00029917949 
  443000    2.6336521 0.0023945954    279726.26    1607468.4 -9.4932264e-05 -0.00052250128 0.00022748636 
  444000    2.6319482 0.0024310889    279726.26      1611994 -0.00016543525 -0.00059499661 0.0002804919 
  445000    2.6303604 0.0024609231    279726.26      1616567 -6.9694597e-05 -0.00049999966 0.00027095302 
  446000    2.6337379 0.0023958987    279726.26    1620910.1 -0.00013635355 -0.00063995381 0.00024352307 
  447000     2.634243 0.0023926018    279726.26    1625036.6 -1.4709303e-05 -0.00065628572 0.00023791908 
  448000    2.6364919 0.0023900632    279726.26    1629206.2 9.2937306e-06 -0.00068628196 0.00028799352 
  449000    2.6355007 0.0023951925    279726.26    1633532.1 -0.00014924426 -0.00061318951 0.0001892331 
  450000    2.6328491 0.0023946676    279726.26    1637987.2 -0.00010369577 -0.00052819119 9.7386978e-05 
  451000    2.6352843 0.0023978028    279726.26    1642447.4 -1.1187284e-05 -0.00070001523 -2.2703722e-05 
  452000    2.6322192 0.0023958317    279726.26    1646952.1 -9.4157436e-05 -0.00064171005 2.0374469e-05 
  453000    2.6357875 0.0024135205    279726.26    1651401.9 -0.00018337384 -0.00065246222 8.4465811e-05 
  454000    2.6314989 0.0023977795    279726.26    1655817.3 -0.00017408608 -0.00058432641 0.0001100592 
  455000    2.6339474 0.0023938012    279726.26    1660239.2 -0.00015101729 -0.00052473671 0.00011451114 
  456000    2.6339895 0.0023931924    279726.26      1664624 -0.00010336765 -0.00057265078 0.00025873495 
  457000    2.6317137 0.0023973159    279726.26    1668985.6 -0.00015100406 -0.00056646657 0.00024176316 
  458000    2.6354339 0.0023987949    279726.26    1673333.4 -0.00016456668 -0.00062567185 0.00019312822 
  459000    2.6344592 0.0023929228    279726.26    1677572.2 -0.00024429299 -0.00054065386 0.00043804119 
  460000    2.6313679 0.0023977669    279726.26    1681730.5 -0.0003341349 -0.00049252647 0.00040776325 
  461000    2.6335069 0.0023947287    279726.26    1685869.9 -0.00030533161 -0.00052204577 0.0003720069 
  462000    2.6364704 0.0023920708    279726.26    1690040.7 -0.00031931243 -0.00051961118 0.00036717041 
  463000    2.6334845 0.0023936672    279726.26    1694248.3 -0.00031373378 -0.00053606145 0.00032293095 
  464000    2.6332473  0.002394623    279726.26    1698360.6 -0.00039042152 -0.00063205631 0.00033121524 
  465000    2.6338757 0.0023946576    279726.26    1702459.4 -0.00044255334 -0.00070439782 0.00033007073 
  466000     2.635737 0.0024009876    279726.26    1706696.9 -0.00042065748 -0.00080506635 0.00015018587 
  467000    2.6333459 0.0024492209    279726.26    1710805.4 -0.00047676282 -0.00068538854 0.00012514365 
  468000    2.6353148  0.002393397    279726.26    1714862.5 -0.00041750434 -0.000660018 5.8714902e-05 
  469000    2.6335898  0.002394292    279726.26    1718976.8 -0.00038153009 -0.00078089635 -6.2840721e-05 
  470000    2.6379071 0.0024003174    279726.26    1723156.1 -0.00030113963 -0.0008039719 -0.00011449834 
  471000     2.635218 0.0023917888    279726.26    1727303.6 -0.00034371689 -0.0008063985 -4.1748292e-05 
  472000    2.6325793 0.0023955723    279726.26      1731395 -0.0003341686 -0.0007398722 -8.5536528e-05 
  473000    2.6320209 0.0023962974    279726.26    1735502.1 -0.00034914727 -0.00076622572 -0.00011394214 
  474000     2.637711  0.002391801    279726.26    1739598.9 -0.00035178529 -0.00074905259 -0.00014135188 
  475000    2.6313924 0.0023976255    279726.26    1743721.3 -0.00036194388 -0.00075444041 -6.6040838e-05 
  476000    2.6343306 0.0023995646    279726.26      1747866 -0.0003906753 -0.00068777944 -8.5281677e-05 
  477000    2.6337505 0.0023951344    279726.26    1752016.2 -0.00037403383 -0.00068224556 -8.7702411e-05 
  478000    2.6323175 0.0023962581    279726.26    1756097.6 -0.00017893885 -0.00056893528 -0.00013204081 
  479000    2.6392941 0.0024036283    279726.26    1760181.1 -0.00022438941 -0.00054674223 -0.00012889014 
  480000    2.6368417 0.0023945871    279726.26      1764318 -0.00015168323 -0.00052671548 -7.1789425e-05 
  481000     2.634381  0.002392867    279726.26    1768407.2 -0.00013550512 -0.00053489728 -2.0133797e-07 
  482000    2.6252657  0.002506848    279726.26    1772378.6 0.00038588049 -0.00068356089 -0.00040489364 
  483000    2.6329327 0.0023957711    279726.26    1776263.2 6.6319407e-05 -0.00046270607 8.6543171e-05 
  484000    2.6318309 0.0023968699    279726.26    1780369.5 -0.00020014059 -0.00041532794 0.00010706513 
  485000    2.6332068 0.0023945164    279726.26    1784626.6 -0.00015742876 -0.00039201436 0.00012662117 
  486000    2.6334707 0.0023938083    279726.26    1788930.7 -0.00012775684 -0.00040503959 0.00010960779 
  487000    2.6354998 0.0024034603    279726.26    1793401.3 -0.00012539085 -0.00044292609 9.4088908e-05 
  488000    2.6356327 0.0024147327    279726.26    1797811.9 -0.00019397091 -0.00034793453 2.9581767e-05 
  489000    2.6344113 0.0023932795    279726.26    1802142.9 -2.4140556e-05 -0.00028806996 0.00019488759 
  490000    2.6421313 0.0023923934    279726.26      1806303 -1.9387562e-05 -0.00032580663 0.00015848495 
  491000    2.6344632 0.0023953766    279726.26    1810388.8 -4.1673452e-05 -0.00034346958 0.00018443977 
  492000    2.6349629 0.0023987664    279726.26      1814474 -6.308079e-05 -0.00030374159 0.00014484454 
  493000    2.6335475 0.0023952225    279726.26    1818570.3 4.4531981e-06 -0.00034341609 0.00015136276 
  494000    2.6327905 0.0023952946    279726.26      1822677 1.9155677e-05 -0.00034593794 0.00012958584 
  495000    2.6347067 0.0024393373    279726.26    1826773.6 -5.5701035e-05 -2.6949792e-05 0.00017858206 
  496000    2.6353545 0.0023967528    279726.26    1830789.6 -7.0509863e-05 -0.00014326171 0.00018848863 
  497000    2.6324929 0.0024207108    279726.26      1834692 -5.9722091e-05 -0.00022616967 0.00017855081 
  498000    2.6316925 0.0023968714    279726.26      1838470 -3.5957012e-05 -0.00012614142 0.0001267713 
  499000    2.6340791 0.0023953253    279726.26    1842293.6 -4.6206755e-05 -0.00013148801 0.00015627037 
  500000    2.6327947 0.0023960625    279726.26    1846157.2 -2.4332018e-05 -0.00014543107 0.00016807633 
  501000    2.6337755  0.002393592    279726.26    1850053.6 1.0584358e-05 -0.00019519585 0.0002004866 
  502000     2.637629 0.0023973076    279726.26    1853976.1 1.7428617e-05 -0.00029443898 0.00018518467 
  503000    2.6351232 0.0023931534    279726.26    1857816.6 1.2031655e-05 -0.0002466272 0.00024647612 
  504000    2.6337874 0.0024026914    279726.26    1861587.1 2.4048642e-05 -0.00024530074 0.00026563795 
  505000    2.6333994 0.0023948964    279726.26    1865351.5 2.6199065e-05 -0.00026752894 0.00023373988 
  506000    2.6327146  0.002395137    279726.26    1869104.8 6.0110868e-05 -0.0002487539 0.00021491804 
  507000    2.6326594 0.0023950307    279726.26    1872820.7 8.3698091e-05 -0.00025790634 0.00023107898 
  508000    2.6309269 0.0024289715    279726.26    1876546.1 4.6563509e-05 -0.00029351936 0.00024149557 
  509000     2.634601 0.0024114581    279726.26    1880333.9 0.00010303672 -0.00036399802 0.00024984761 
  510000    2.6378723 0.0023903853    279726.26      1884193 5.487863e-05 -0.00034679673 0.00021384343 
  511000    2.6323301 0.0023958039    279726.26    1888152.3 -1.1862584e-06 -0.00027768756 0.00025121895 
  512000    2.6331301 0.0024175563    279726.26    1892262.1 2.6240642e-05 -0.00028145839 0.00024819431 
  513000    2.6348738 0.0023947033    279726.26    1896294.5 3.3689821e-06 -0.00026469789 0.00028834161 
  514000    2.6367947 0.0023967992    279726.26    1900260.6 3.2149865e-06 -0.00024347071 0.00027736688 
  515000    2.6367641 0.0023916025    279726.26    1904322.5 1.2382836e-05 -0.00027360315 0.00015427534 
  516000    2.6340524 0.0024002908    279726.26      1908495 -2.2769915e-05 -0.00014484943 0.00016844837 
  517000    2.6343468 0.0023932391    279726.26    1912602.7 3.3392747e-05 -0.0001435245 0.00018405707 
  518000    2.6345653 0.0023929832    279726.26    1916715.6 5.1799416e-05 -0.00014269049 0.00022068945 
  519000    2.6349569 0.0023948915    279726.26    1920898.2 3.6896874e-05 -0.00022731062 0.00020284973 
  520000    2.6319827 0.0023965147    279726.26    1925151.1 0.00023246828 -9.3009724e-06 0.00022132374 
  521000    2.6346259 0.0023949605    279726.26      1929461 0.00022525123 -1.989963e-05 0.00019492532 
  522000    2.6326503 0.0023961751    279726.26    1933751.8 0.00034813552 -2.2592494e-05 0.00022379679 
  523000    2.6347407 0.0023967174    279726.26    1938111.4 0.00039514873 -1.2463295e-05 0.00028533207 
  524000    2.6342806 0.0023929741    279726.26    1942507.1 0.00035227255 6.8130193e-05 0.00026903302 
  525000    2.6349567 0.0024119093    279726.26    1946981.2 0.00031010268 1.7909301e-06 0.00027191279 
  526000    2.6353038 0.0023950975    279726.26    1951571.7 0.00028725305 -3.2385266e-05 0.00024324355 
  527000    2.6306706 0.0024340582    279726.26    1956231.4 0.00032249011 -4.406515e-05 0.00016975453 
  528000    2.6267293 0.0024885289    279726.26    1960839.7 0.00015092459 -0.00014213965 0.00046123368 
  529000    2.6364117 0.0024055848    279726.26    1965448.3 0.00045639455 -0.00013494936 0.00029878179 
  530000    2.6374725 0.0024032163    279726.26    1970023.7 0.0004251389 -0.00025013314 0.00035841812 
  531000    2.6325087  0.002395633    279726.26    1974647.3 0.00045804752 -0.00041115217 0.00025934783 
  532000    2.6360853 0.0023942973    279726.26    1979288.6 0.00040602364 -0.00043872606 0.00020593358 
  533000    2.6325355 0.0023957155    279726.26    1983861.3 0.00040600085 -0.00038317184 0.0002418466 
  534000    2.6313718 0.0023980197    279726.26    1988410.4 0.00039264359 -0.00037307908 0.00024613311 
  535000     2.637212 0.0023956485    279726.26    1992795.8 0.00039870946 -0.00037443121 0.00021893403 
  536000    2.6349901 0.0023991674    279726.26    1997170.5 0.00038495541 -0.00037518296 0.00023741193 
  537000    2.6384876 0.0024172892    279726.26    2001552.2 0.00039016565 -0.00047832072 0.00024144578 
  538000    2.6347144 0.0023978684    279726.26    2005983.1 0.0003339117 -0.00050745787 0.0001342536 
  539000    2.6360572 0.0023904369    279726.26    2010466.8 0.00018568282 -0.0005065624 8.7428842e-05 
  540000    2.6359785 0.0024076818    279726.26    2015036.6 0.00032688932 -0.00042566287 -4.145306e-06 
  541000    2.6351972 0.0023987648    279726.26    2019750.4 0.00028217406 -0.00039208747 0.00011224749 
  542000    2.6337443 0.0023935587    279726.26    2024414.5 0.00036529098 -0.00036445692 0.00013940156 
  543000    2.6405388 0.0024059621    279726.26    2029101.8 0.00041503683 -0.00037300709 6.6750351e-05 
  544000    2.6345381 0.0024087595    279726.26    2033801.4 0.00046122493 -0.00039314259 0.00011474781 
  545000    2.6340722 0.0023934514    279726.26    2038540.1 0.0004220598 -0.00031420815 0.00013731107 
  546000    2.6360764 0.0023927076    279726.26    2043443.5 0.0004333208 -0.00029352262 0.00014258877 
  547000    2.6363262 0.0023944095    279726.26    2048312.5 0.0003681534 -0.00023756306 0.00014620085 
  548000    2.6392657 0.0024271252    279726.26    2053067.5 0.00034606826 -0.00031116074 0.00015825529 
  549000    2.6335708 0.0023954891    279726.26    2057623.8 0.0002899459 -0.00020998199 0.00021224169 
  550000    2.6378162 0.0024416843    279726.26    2062181.2 0.00030538821 -0.0002118423 0.00022310648 
  551000    2.6345337 0.0023926044    279726.26    2066776.4 0.00029580435 -0.00019430407 0.00011354123 
  552000    2.6362698 0.0023956655    279726.26    2071645.2 0.00029117669 -0.00022434149 0.00012541556 
  553000    2.6331678 0.0023952954    279726.26    2076530.1 0.00030255617 -0.00020419402 0.00010766537 
  554000    2.6360451 0.0024008642    279726.26    2081350.2 0.00025323595 -0.00020154987 0.00011086056 
  555000    2.6356886 0.0024247726    279726.26    2086281.4 0.00018471848 -0.000276312 0.0002255395 
  556000    2.6347879 0.0024031179    279726.26    2091253.7 0.00027814119 -0.00024004583 0.00021423277 
  557000    2.6336724  0.002393679    279726.26    2096114.8 0.00031674941 -0.00016108594 0.00025404337 
  558000    2.6370421 0.0023963355    279726.26    2100854.7 0.00044761931 3.2272395e-05 0.00037217377 
  559000    2.6335864 0.0023942474    279726.26    2105595.9 0.00041916456 7.3067311e-05 0.00035127557 
  560000    2.6344991 0.0023934668    279726.26    2110369.1 0.00054326357 5.0956117e-05 0.00030370648 
  561000    2.6348499 0.0023930785    279726.26    2115162.1 0.00052290239 4.5241297e-06 0.00033155443 
  562000    2.6328184 0.0023957538    279726.26    2119932.6 0.00053354078 3.4195817e-05 0.00031990438 
  563000    2.6386755 0.0023927465    279726.26    2124673.4 0.00048867832 5.8956098e-05 0.00016209019 
  564000     2.635842 0.0023908153    279726.26    2129019.8 0.00046627513 8.7310486e-05 0.00020760013 
  565000    2.6332732 0.0023949134    279726.26    2133459.3 0.00047449349 9.6160768e-05 8.7651469e-05 
  566000    2.6414755 0.0024199211    279726.26      2137975 0.0003893471 5.7578473e-05 2.5434754e-05 
  567000    2.6410749 0.0024084235    279726.26    2142524.5 0.00043924685 9.2291908e-05 -6.1250578e-05 
  568000     2.635031 0.0023917344    279726.26    2146904.7 0.00042219547 0.00023551968 -3.1901457e-05 
  569000     2.634635 0.0024012646    279726.26    2151310.4 0.00035304635 0.00019328045 -6.8788449e-05 
  570000    2.6344683 0.0024080767    279726.26    2155700.6 0.00033155796 0.00016866107 -7.9440708e-05 
  571000    2.6341246 0.0023931918    279726.26    2159940.5 0.00040376088 0.00021198718 -2.0345677e-05 
  572000    2.6344007 0.0024048848    279726.26    2163986.3 0.00035073427 0.00022805906 -2.7914335e-05 
  573000    2.6440307 0.0023977595    279726.26    2168065.1 0.00037267735  0.000254988 5.9164144e-06 
  574000    2.6373242 0.0023974101    279726.26    2172144.3 0.00037886496 0.00018621365 6.8166839e-06 
  575000    2.6328967 0.0024660334    279726.26    2176210.2 0.00045054395 0.00013432138 0.00012679194 
  576000    2.6351023 0.0023941909    279726.26    2180425.6 0.00038089939 0.00012201676 6.4429964e-05 
  577000    2.6380969  0.002392049    279726.26    2184760.6 0.00024457449 0.00026565607 1.6213421e-05 
  578000    2.6339088 0.0023976744    279726.26    2188837.7 0.00026609552 0.00025093878 6.4990564e-05 
  579000    2.6345966 0.0023977888    279726.26    2192886.7 0.00032167464 0.00023367777 5.9112034e-05 
  580000    2.6364614 0.0023963758    279726.26    2196943.9  0.000321258 0.00027626677 -1.1265906e-05 
  581000    2.6395572 0.0024077231    279726.26    2200837.4 0.00035090853 0.00028282063 1.1520994e-05 
  582000    2.6376045 0.0024068082    279726.26    2204876.7 0.00039456678 0.00035484862 9.7826428e-06 
  583000    2.6376833 0.0023953998    279726.26    2208907.9 0.00044326417 0.00029356354 -9.0519051e-06 
  584000    2.6363766  0.002395062    279726.26    2213164.3 0.00055512406 0.00027038399 -7.5858733e-05 
  585000    2.6337449 0.0023979882    279726.26    2217460.5 0.0005817182 0.00024689583 -8.8745093e-05 
  586000    2.6345106 0.0023958697    279726.26    2221784.7 0.00055905883 0.00027789767 -3.5513109e-05 
  587000    2.6357813 0.0023957577    279726.26    2226034.5 0.00053428109 0.00028790537 -1.5120608e-05 
  588000    2.6362439 0.0023972504    279726.26    2230180.3 0.00055170595 0.00027417815 -1.2268238e-05 
  589000    2.6345432 0.0023969635    279726.26    2234310.9 0.00053477574 0.00020993896 3.2499913e-05 
  590000    2.6365554 0.0023951671    279726.26    2238431.8 0.00053522016 0.00021940137 1.4087461e-05 
  591000    2.6447497 0.0024072695    279726.26      2242641 0.0005470906 0.00012607857 0.00010206525 
  592000    2.6371049 0.0023927625    279726.26    2246772.8 0.00061925848 0.00017622559 0.00012641995 
  593000    2.6371254 0.0023932131    279726.26    2250817.9 0.00061544995 3.2801007e-06 0.00011588201 
  594000    2.6378681 0.0023937648    279726.26    2254561.4 0.00048181907 7.4227723e-05 0.00021837048 
  595000    2.6367229 0.0024270588    279726.26    2258427.9 0.00039526736 6.3078374e-05 0.00015096662 
  596000    2.6346395 0.0023962003    279726.26    2262130.1 0.00027810463 -1.7218774e-06 0.00022961312 
  597000    2.6410389 0.0023952034    279726.26    2265807.5 0.00012092274 6.049978e-05 0.00031718499 
  598000    2.6381686 0.0023994861    279726.26    2269362.7 0.00011301255 4.756227e-05 0.00030880953 
  599000     2.636659  0.002395198    279726.26    2272972.4 0.00014453405 5.2954732e-05 0.0003302181 
  600000    2.6373998 0.0023985254    279726.26    2276626.9 0.00015795019 3.6303319e-05 0.00030405994 
  601000    2.6378986 0.0023989774    279726.26    2280333.4 0.00015550489 3.5016421e-05 0.00024846873 
  602000    2.6362278 0.0023984497    279726.26    2284096.9 0.00024494317 5.824671e-05 0.00029400056 
  603000    2.6385967 0.0024000908    279726.26    2287880.6 0.00018632501 4.1209452e-05 0.00031942046 
  604000    2.6276306 0.0024679838    279726.26    2291725.5 -4.7944159e-05 5.5937553e-05 0.00026753381 
  605000    2.6370709 0.0024061816    279726.26    2295597.7 0.00044518549 6.1262088e-06 0.00026634115 
  606000    2.6368695 0.0023920706    279726.26    2299656.2 0.00039351582 -2.5084922e-05 0.00012430627 
  607000     2.636704 0.0023927223    279726.26    2303827.5 0.00041242736 -7.964366e-06 0.00012781108 
  608000    2.6361104 0.0024068188    279726.26    2307717.1  0.000403479 -3.2330307e-06 0.0002740101 
  609000    2.6357766 0.0023934816    279726.26    2311591.7 0.00037948212 1.112109e-05 0.00026961253 
  610000     2.633847 0.0023978742    279726.26    2315409.6 0.00034829236 -1.6810315e-06 0.00031068898 
  611000    2.6349113 0.0023965408    279726.26    2319247.9 0.00032552889 -3.6394276e-05 0.00028209608 
  612000    2.6354112  0.002394688    279726.26    2323161.6 0.0004485269 -2.0971598e-05 0.0002972307 
  613000    2.6428418  0.002389627    279726.26    2327155.3 0.00044753922 3.7865316e-06 0.00026959159 
  614000    2.6371056 0.0024153821    279726.26      2331068 0.00043475087 1.1259187e-05 0.00030698285 
  615000    2.6355188  0.002418911    279726.26    2334966.8 0.0003838776 2.3104736e-05 0.00017519946 
  616000    2.6387778 0.0023911168    279726.26    2338880.9 0.00027316734 5.0304748e-05 0.00018364942 
  617000    2.6370724 0.0023949854    279726.26      2342687 0.00026809734 0.00015151452 0.00021408134 
  618000    2.6364294 0.0023947968    279726.26    2346576.7 0.00013417308 0.00016587424 0.00025972196 
  619000    2.6268393 0.0024868192    279726.26    2350516.3 -1.3817873e-05 0.00016278569 0.00034267988 
  620000    2.6359093 0.0023977394    279726.26    2354493.7 5.380127e-05 0.00021817344 0.00035987312 
  621000    2.6360823  0.002397233    279726.26    2358486.3 -7.8362795e-05 0.00025978758 0.00030717199 
  622000    2.6369771 0.0023981743    279726.26    2362446.1 -0.00015743673 0.00031221303 0.00040955643 
  623000    2.6377371 0.0023962407    279726.26    2366326.8 -0.00019423265 0.00031955968 0.00038581277 
  624000    2.6360581 0.0023976979    279726.26    2370223.4 2.6778833e-05 0.00032162579 0.0003170377 
  625000    2.6340863 0.0024019437    279726.26    2374208.5 8.4263032e-05 0.00021602978 0.00012862633 
  626000    2.6349954  0.002400773    279726.26      2378279 6.711589e-05 0.00026413075 0.00016048986 
  627000    2.6387624 0.0023967049    279726.26    2382403.2 1.6242624e-05 0.00028112712 0.00022244334 
  628000    2.6376071 0.0023972756    279726.26    2386599.3 1.6354668e-05 0.00028477462 0.00021235554 
  629000    2.6373864 0.0024017582    279726.26    2390921.6 -1.2389982e-05 0.00035865419 0.00017736531 
  630000    2.6372446 0.0023997713    279726.26    2395414.1 2.3832052e-05 0.00040535749 0.00016105273 
  631000    2.6354638 0.0024011577    279726.26    2400024.5 1.3907081e-05 0.00038870263 0.00017084343 
  632000    2.6385041 0.0024065418    279726.26    2404693.3 -4.0480105e-07 0.00041184027 0.00017276931 
  633000    2.6348131 0.0023946379    279726.26    2409486.2 -1.9894346e-05 0.00040770249 0.00018491625 
  634000     2.635771 0.0023971253    279726.26    2414362.7 -1.2284036e-06 0.00041431426 0.00019178835 
  635000    2.6394683 0.0023970651    279726.26    2419315.1 -8.613407e-05 0.00022800424 0.00018507478 
  636000     2.633503 0.0024517462    279726.26    2424179.6 0.00012795255 0.00024372599 0.00035847513 
  637000    2.6408321 0.0023935234    279726.26    2428880.2 0.00013980507 0.00028543908  0.000282374 
  638000     2.635896 0.0024180712    279726.26    2433555.6 -4.8809366e-05 0.00022530081 0.00030151743 
  639000     2.633563 0.0024079392    279726.26    2438262.1 0.00010462961 0.00011721723 0.00036571104 
  640000    2.6340424 0.0023968524    279726.26    2443087.8 4.6131173e-05 0.00018387408 0.00034318302 
  641000    2.6335575 0.0023952362    279726.26    2447997.1 0.00013605167 0.00020091586 0.00040283508 
  642000    2.6347555  0.002394291    279726.26    2452969.9 0.00019593437 0.00012987689 0.00039202745 
  643000    2.6371188 0.0024076896    279726.26    2457954.1 0.00025686631 0.0001428345 0.00047124104 
  644000    2.6397763 0.0023910687    279726.26    2463080.6 0.00019467786 0.00019759015 0.00040964146 
  645000    2.6358825 0.0023912457    279726.26    2468269.7 0.00022295674 0.00024075719 0.00035882873 
  646000     2.635884 0.0024074055    279726.26      2473325 0.00023785423 0.00024901304 0.00035311458 
  647000    2.6341625 0.0024071463    279726.26    2478428.9 0.00034145006 0.00024439073 0.0003515611 
  648000     2.634755 0.0023962149    279726.26      2483475 0.0003684645 0.00018469473 0.00041598634 
  649000    2.6365017 0.0023962329    279726.26    2488556.9 0.00043283602 0.00021188955 0.00042046463 
  650000    2.6369857 0.0023903454    279726.26    2493733.5 0.00047673999 0.00021398681 0.00039698057 
  651000     2.634186 0.0024074086    279726.26    2498782.4 0.00049438359 0.00018280313 0.00047524041 
  652000    2.6352127  0.002394926    279726.26    2503649.4 0.00067490594 0.00014742896 0.0005028406 
  653000    2.6359004 0.0023912423    279726.26    2508166.6 0.0006610034 0.00015251196 0.00053733029 
  654000    2.6356017 0.0023934791    279726.26    2512763.9 0.00067106088 0.00022002905 0.00053415956 
  655000    2.6346664 0.0024066155    279726.26    2517391.7 0.00056856567 0.00034159144 0.00054260887 
  656000     2.637116  0.002396641    279726.26    2522063.1 0.00056390427 0.00032331433 0.0005147556 
  657000      2.63535 0.0023940052    279726.26    2526710.2 0.00059636852 0.00036871828 0.00049931576 
  658000    2.6351666 0.0023945728    279726.26    2531270.6 0.00058738956 0.00040089623 0.00050254227 
  659000    2.6365605 0.0024038871    279726.26    2535823.2 0.00062668545 0.00040009427 0.00052555604 
  660000    2.6387962  0.002390707    279726.26    2540305.5 0.0005840365 0.00036926364 0.00051497606 
  661000    2.6337148 0.0023956079    279726.26    2544823.4 0.00054411356 0.00033930721 0.00049727789 
  662000    2.6370133 0.0023904722    279726.26      2549401 0.00056526968 0.00034048046 0.00050796936 
  663000    2.6380996 0.0024179221    279726.26    2553958.6 0.00048362641 0.00037287668 0.00038092982 
  664000    2.6343922 0.0024040932    279726.26    2558435.2 0.00051391157 0.00041280115 0.00034312038 
  665000     2.635412 0.0024020477    279726.26      2562756 0.0005280375 0.00044431486 0.00033275425 
  666000    2.6374037 0.0023934618    279726.26    2567170.8 0.00065562383 0.00050885234 0.00036599201 
  667000    2.6368434 0.0023913198    279726.26    2571743.9 0.00064015694 0.00044569297 0.00039062628 
  668000    2.6344861 0.0023938906    279726.26    2576375.3 0.00054707504 0.0004435137 0.00034843119 
  669000    2.6338569 0.0023968575    279726.26      2581071 0.00051636897 0.00051875946 0.00033377369 
  670000    2.6366642 0.0023994099    279726.26    2585854.6 0.00052614219 0.00039111636 0.00033508262 
  671000    2.6346047 0.0024051072    279726.26    2590505.7 0.00054318704 0.00043659152 0.00025687282 
  672000    2.6368902 0.0023944606    279726.26    2595244.3 0.00045526717 0.00040749135 0.00028309437 
  673000    2.6373494 0.0023893844    279726.26    2600083.8 0.00034662083 0.0002894174 0.00037978459 
  674000    2.6326629 0.0023951853    279726.26    2605041.2 0.00036877372 0.00028167001 0.00031027806 
  675000    2.6416052 0.0023944701    279726.26    2610087.2 0.00033442538 0.00020327266 0.00032583858 
  676000    2.6340971 0.0024430533    279726.26    2615097.8 0.00030869873 0.00023652967 0.00033934483 
  677000    2.6345139 0.0023923635    279726.26    2619960.2 0.00019285537 0.00027392522 0.00028070978 
  678000    2.6351117  0.002392738    279726.26    2624776.6 0.00035981634 0.0002805131 0.00036220558 
  679000    2.6357441 0.0023900627    279726.26    2629581.8 0.00031724451 0.00020853614 0.00035388026 
  680000    2.6316794 0.0023972961    279726.26    2634309.8 0.00020914831 0.00012741891 0.00025941845 
  681000    2.6360959 0.0023912989    279726.26    2638984.4 0.00018710701 0.00013060472 0.00021856753 
  682000    2.6330945 0.0023954722    279726.26    2643721.4 0.00015716826 0.00013680415 0.00027848396 
  683000    2.6368752 0.0023919077    279726.26    2648491.5 0.00013536684 0.00011895273 0.00029983759 
  684000    2.6321669 0.0023960102    279726.26    2653111.3 0.00014525655 0.00011893169 0.00034123739 
  685000    2.6339942 0.0023930058    279726.26    2657640.9 0.00010406608 6.2252042e-05 0.00025553412 
  686000    2.6332881 0.0023941999    279726.26    2662100.6 0.00010102788 9.9088344e-05 0.00024815016 
  687000    2.6329624 0.0023949272    279726.26    2666580.8 8.6145923e-05 0.00010425579 0.00023271703 
  688000    2.6355829 0.0023911849    279726.26    2671136.7 -5.6711774e-06 0.00016154035 0.00019396504 
  689000    2.6353013 0.0023915749    279726.26    2675694.4 6.9532726e-05 0.00012404603 0.0003596801 
  690000    2.6350379 0.0023925847    279726.26    2680225.6 4.249789e-05 8.9768311e-05 0.00035761495 
  691000    2.6333812 0.0023941796    279726.26    2684717.2 4.1215854e-05 9.3190655e-05 0.00035890641 
  692000    2.6365293 0.0024167223    279726.26    2689253.2 2.6314116e-05 7.8068372e-05 0.00036567614 
  693000    2.6327886 0.0023951227    279726.26    2693851.8 4.1628945e-05 7.5475572e-05 0.00045966389 
  694000    2.6352187 0.0023990437    279726.26    2698605.8 -9.6886827e-05 8.1644557e-05 0.00039832511 
  695000    2.6327906 0.0023951708    279726.26    2703275.7 -0.0001567674 0.00020309402 0.00029524926 
  696000    2.6347205 0.0024056366    279726.26      2708041 -0.00012473195 0.00025531235 0.00022984729 
  697000    2.6336639 0.0024147548    279726.26    2712743.7 -6.2140994e-05 0.00031908604 0.00017924406 
  698000    2.6336568 0.0023944212    279726.26    2717433.6 -6.4333631e-05 0.00026961635 0.00027837412 
  699000    2.6324305 0.0023956846    279726.26    2722101.8 0.00010262684 0.0002564831 0.00022333786 
  700000    2.6375425 0.0024122486    279726.26    2726936.6  9.85625e-05 0.00024704879 0.00021962181 
  701000    2.6361834 0.0024143902    279726.26    2731828.4 0.00010149436 0.00027927997 0.00026426069 
  702000    2.6373908 0.0023964972    279726.26    2736732.6 0.00018071398 0.00028772716 0.00017152724 
  703000    2.6365181 0.0024155527    279726.26    2741390.2 0.00012611744 0.0001938871 0.00025061632 
  704000     2.635794 0.0023952079    279726.26    2746131.7 0.00018119091 0.00014191163 0.0002711599 
  705000    2.6341026 0.0023927365    279726.26    2750877.1 0.00015835489 0.00011226837 0.00023062399 
  706000    2.6339843 0.0024002629    279726.26    2755634.9 0.0001701055 0.00010171967 0.00024133703 
  707000    2.6322825 0.0023963222    279726.26    2760388.9 0.00021666636 6.863884e-05 0.00022824027 
  708000    2.6371184 0.0023906993    279726.26    2765244.7 0.0002287895 0.0001420529 0.00024058571 
  709000    2.6377954 0.0023954614    279726.26    2770106.5 0.00025727875 0.00019310598 0.00036425165 
  710000    2.6337149 0.0023945818    279726.26    2774798.4 0.00025632557 0.00018849554 0.00040201003 
  711000    2.6374121  0.002405527    279726.26    2779572.5 0.00027817363 0.00022236386 0.00036824354 
  712000    2.6341801 0.0024650848    279726.26    2784444.7 0.00022788047 0.00026760046 0.00038494896 
  713000    2.6322041 0.0023957057    279726.26    2789331.3 0.00028172165 0.00027965408 0.00037338631 
  714000    2.6394329 0.0024043392    279726.26    2794176.5 0.0003221274 0.00028329842 0.00037819011 
  715000    2.6336496 0.0023937299    279726.26      2799062 0.00030393269 0.00023233693 0.00038200936 
  716000    2.6282172 0.0024508648    279726.26    2803936.9 0.00049326568 0.00026916217 0.00033575788 
  717000    2.6337012 0.0023936753    279726.26    2808755.6 0.00056268129 0.00019549866 0.00027255476 
  718000    2.6321391 0.0023955679    279726.26    2813549.4 0.00054259005 0.00015978968 0.00028322115 
  719000    2.6330094 0.0023956362    279726.26    2818354.2 0.00057981197 9.6994145e-05 0.00018042889 
  720000    2.6329809 0.0023954681    279726.26    2823195.3 0.00055529745 0.0001028288 0.0001708771 
  721000    2.6361476 0.0023913916    279726.26    2828139.8 0.00054094257 0.00012913131 0.00017221102 
  722000    2.6324302 0.0023953801    279726.26    2833097.7 0.00052139069 0.00012010385 0.00017851567 
  723000    2.6289196  0.002442817    279726.26    2837939.8 0.00049285466 0.00018391522 0.00021008499 
  724000    2.6338208 0.0023953445    279726.26    2842827.3 0.00053601501 0.00014338063 0.00017622043 
  725000    2.6333925 0.0023942937    279726.26    2847716.1 0.00055227745 0.00014279695 0.00018329853 
  726000    2.6370905 0.0024156639    279726.26    2852679.5 0.00052373548 0.00016671112 0.00017358944 
  727000    2.6334584 0.0023951698    279726.26    2857757.9 0.00054472648 0.00017921451 0.00021061162 
  728000    2.6322014 0.0023958152    279726.26    2862857.2 0.00057320121 0.00019423949 0.00014649998 
  729000    2.6376953 0.0024081222    279726.26    2868006.7 0.00066115207 0.0002309421 0.00037034496 
  730000    2.6342919 0.0023945934    279726.26    2872930.2 0.00083878844 0.00021235634 0.0002802546 
  731000    2.6367447 0.0023973245    279726.26    2877854.4 0.00082695785 0.00027931432 0.00022109085 
  732000    2.6325228 0.0023955445    279726.26    2882791.6 0.00078561539 0.00028931259 0.00012160844 
  733000    2.6383741 0.0023925899    279726.26    2887789.2 0.00075127822 0.00029160684 0.0001255466 
  734000    2.6395169 0.0023939562    279726.26    2892732.7 0.00085525366 0.00031785888 9.0361474e-05 
  735000    2.6369485 0.0024056615    279726.26    2897702.5 0.00091270609 0.00027338174 3.3843852e-05 
  736000    2.6317207 0.0023969838    279726.26    2902681.3 0.0010666061 3.1471144e-06 0.00012225057 
  737000    2.6335854 0.0023932908    279726.26    2907658.6 0.00099867013 -3.1954559e-06 -1.293254e-05 
  738000    2.6318949 0.0023962067    279726.26    2912706.2 0.0010046611 1.2253468e-06 -3.009776e-05 
  739000    2.6317104 0.0023968989    279726.26    2917700.7 0.00096937619 -1.3862065e-05 -3.7000516e-05 
  740000    2.6350384 0.0023931035    279726.26      2922671 0.0010358039 2.5179716e-05 -4.3025853e-05 
  741000    2.6323135 0.0023962605    279726.26    2927601.4 0.0010144462 0.00010232721 -9.0999971e-05 
  742000    2.6338109 0.0023965535    279726.26    2932546.6 0.0012046495  3.47335e-05 -0.00023742885 
  743000     2.633058 0.0023950119    279726.26    2937634.9 0.0011438452 8.5411672e-05 -0.00029159337 
  744000    2.6340455 0.0023954607    279726.26    2942811.6 0.0011287088 0.00010144287 -0.00029904365 
  745000    2.6323571 0.0023959411    279726.26    2947986.7 0.0011420741 9.1498901e-05 -0.00030028808 
  746000    2.6347255 0.0023934426    279726.26    2953183.6 0.0011080982 0.00010469855 -0.00030513046 
  747000    2.6362082 0.0024031731    279726.26      2958377 0.0012161612 0.0002068031 -0.00019023016 
  748000    2.6349589 0.0023918889    279726.26    2963592.8 0.0012035336 0.00021001516 -0.00022140234 
  749000    2.6328006 0.0023961037    279726.26    2968799.4 0.0011958473 0.00025102061 -0.00019901668 
  750000    2.6332957 0.0023948528    279726.26    2974037.4 0.0012136592  0.000255804 -0.00016912021 
  751000    2.6339867 0.0023951885    279726.26    2979335.9 0.0012453307 0.00029399183 -0.00013936226 
[...]
 1849000     2.633592 0.0023971502    279726.26    8563595.2 -0.0002525384 -0.00019733404 -0.00033856113 
 1850000    2.6361229 0.0023905299    279726.26    8569169.6 -0.00022893255 -0.0002109763 -0.00036292708 
 1851000    2.6328817 0.0024368554    279726.26    8574695.7 -0.00019295794 -0.00018504222 -0.00035080214 
 1852000    2.6319966 0.0023965101    279726.26      8580355 -0.00010904047 -0.00026258667 -0.00037300089 
 1853000    2.6353755 0.0023992955    279726.26    8586311.8 -0.00020944582 -0.00019754147 -0.0003737093 
 1854000    2.6346189 0.0023919512    279726.26    8592161.3 -0.00018868535 -0.00016989075 -0.00046554602 
 1855000    2.6332505 0.0023949499    279726.26    8597665.2 -0.00036286747 -0.00023558314 -0.00039296462 
 1856000    2.6319263 0.0023963666    279726.26    8603244.3 -0.00045049643 -0.00023382028 -0.00033291827 
 1857000    2.6313311 0.0023981019    279726.26    8608822.5 -0.00041874378 -0.00015402998 -0.00031728136 
 1858000    2.6316674 0.0023970573    279726.26    8614432.3 -0.00039606174 -0.00015662599 -0.00031367854 
 1859000    2.6347311  0.002397856    279726.26    8620090.9 -0.00041568135 -0.00016398907 -0.00023896983 
 1860000    2.6335065 0.0023937227    279726.26    8625780.6 -0.0004624522 -0.00011090151 -0.00023736624 
 1861000     2.632041 0.0023967879    279726.26    8631504.9 -0.00041822377 -7.8397227e-05 -0.0002409152 
 1862000     2.635209 0.0023921716    279726.26    8637178.2 -0.00041271029 -6.7309207e-05 -0.00026492367 
 1863000    2.6342188 0.0023954237    279726.26    8642539.4 -0.00039353033 -2.1671289e-05 -0.0002939503 
 1864000    2.6323202 0.0023954606    279726.26    8647928.3 -0.00039748671 -9.3445075e-06 -0.00030607933 
 1865000    2.6357255 0.0023928325    279726.26    8653477.2 -0.00036165913 5.3400746e-05 -0.00033411921 
 1866000    2.6353455 0.0023917973    279726.26    8659024.7 -0.00035476179 3.3144276e-05 -0.00032047488 
 1867000    2.6324961 0.0023958004    279726.26    8664457.4 -0.00043048997 -1.642431e-06 -0.0004805815 
 1868000     2.634367 0.0023937419    279726.26    8669961.5 -0.00042135527 -7.12107e-05 -0.00047389163 
 1869000    2.6361706 0.0023947139    279726.26    8675590.7 -0.00040525445 -7.5148597e-05 -0.00045748429 
 1870000    2.6372329 0.0023961803    279726.26    8681168.9 -0.00039850232 -4.370673e-05 -0.00042450426 
 1871000    2.6363084 0.0024062384    279726.26    8686758.7 -0.00041359134 -0.0001526368 -0.00047091442 
 1872000    2.6333383 0.0023958362    279726.26    8692171.8 -0.00062569257 -0.00017112635 -0.00042174487 
 1873000     2.635535 0.0023916184    279726.26    8697411.4 -0.00066314609 -0.00018128772 -0.00037757123 
 1874000    2.6334096 0.0023942274    279726.26    8702608.6 -0.000655623 -0.00024087919 -0.00042197344 
 1875000    2.6339236 0.0024076524    279726.26    8707792.7 -0.00070448716 -0.00028086902 -0.00032523123 
 1876000     2.633153 0.0023951862    279726.26      8713150 -0.00077006963 -0.00026470772 -0.00034810321 
 1877000    2.6345032 0.0023944099    279726.26    8718497.9 -0.00072608903 -0.00029885357 -0.00028431248 
 1878000    2.6350685 0.0024352093    279726.26    8723856.6 -0.00096481988 -0.00053811094 -0.00032546938 
 1879000    2.6316481 0.0023968351    279726.26    8728758.1 -0.00068399642 -0.00025239105 -0.00036779944 
 1880000    2.6313197 0.0023978776    279726.26    8733646.6 -0.00065380831 -0.0003167757 -0.00031152069 
 1881000    2.6340638 0.0023932107    279726.26      8738432 -0.00061767782 -0.00030265519 -0.00033984369 
 1882000    2.6352386 0.0023957498    279726.26      8743118 -0.00054560395 -0.00049466076 -0.00030525901 
 1883000    2.6326089 0.0023960836    279726.26    8747815.8 -0.00055623246 -0.00054140236 -0.00032931407 
 1884000    2.6315308 0.0023973857    279726.26    8752293.9 -0.00052399188 -0.0005940396 -0.00029802203 
 1885000    2.6351432 0.0024058544    279726.26    8756944.4 -0.00050742295 -0.00058342044 -0.00025071065 
 1886000    2.6319067 0.0023970324    279726.26    8761796.6 -0.00055714096 -0.00059618543 -0.0002510778 
 1887000     2.634543  0.002392524    279726.26    8766640.2 -0.00051976358 -0.00061452686 -0.00026847135 
 1888000    2.6339746 0.0023931177    279726.26    8771399.8 -0.00052702052 -0.00067904483 -0.00027454938 
 1889000    2.6337404 0.0023944647    279726.26    8776103.9 -0.00052492626 -0.00068451206 -0.0002633313 
 1890000     2.634117 0.0023979678    279726.26    8780759.2 -0.00055925981 -0.00065332644 -0.00029881814 
 1891000    2.6336949 0.0023936947    279726.26    8785521.7 -0.00059045712 -0.00060725461 -0.00023719264 
 1892000    2.6337832 0.0024105598    279726.26    8790362.3 -0.00055617868 -0.00075786165 -0.00028098289 
 1893000    2.6327372 0.0023956025    279726.26    8795039.3 -0.00045800635 -0.00074382125 -0.00028027181 
 1894000     2.634991 0.0023922726    279726.26    8799333.1 -0.00029945079 -0.00080450995 -0.00039710121 
 1895000    2.6377422 0.0023934293    279726.26    8803362.5 -0.00037237596 -0.00077436997 -0.0003645903 
 1896000    2.6348109 0.0023932473    279726.26    8807418.3 -0.00019771977 -0.00062696793 -0.00049222196 
 1897000    2.6341197 0.0023937997    279726.26    8811466.1 -0.00018606547 -0.00055903366 -0.00047875406 
 1898000    2.6324085 0.0023961063    279726.26    8815645.6 -0.00014525967 -0.00053419978 -0.00048455477 
 1899000    2.6377898 0.0023957794    279726.26    8819914.3 -0.00021866397 -0.00061775214 -0.00056252196 
 1900000    2.6342057 0.0024002591    279726.26    8824321.9 -0.00015843633 -0.00066650456 -0.00056267801 
 1901000    2.6389577 0.0024089035    279726.26    8828614.5 -0.00012506182 -0.00064032804 -0.0005334406 
 1902000    2.6367357 0.0024096401    279726.26    8832347.3 -8.0224821e-05 -0.00065537967 -0.00049083062 
 1903000    2.6279102 0.0024731761    279726.26    8836074.4 -0.00016718774 -0.00067629851 -0.0004246999 
 1904000    2.6373273 0.0023944298    279726.26    8839745.3 -0.00017561315 -0.00064864788 -0.00039045695 
 1905000    2.6381614  0.002393417    279726.26    8843528.4 -0.00022356842 -0.00071952738 -0.00030949767 
 1906000    2.6357867  0.002393375    279726.26    8847204.5 -0.00014778499 -0.00059479793 -0.00021863643 
 1907000    2.6345871  0.002396588    279726.26    8850735.4 -0.00016283176 -0.00054432463 -0.00017584143 
 1908000    2.6374083 0.0023967413    279726.26    8854372.8 -0.00020484439 -0.00058083085 -0.00014972518 
 1909000    2.6405949 0.0024297591    279726.26    8857727.8 -0.00028434655 -0.00050076675 -7.9111463e-05 
 1910000    2.6358243 0.0023960887    279726.26    8860962.1 -0.00013261952 -0.00053215172 -0.00014460726 
 1911000    2.6358092 0.0023941398    279726.26      8864148 -0.00015093801 -0.00053561224 -0.000106983 
 1912000    2.6425954 0.0023927895    279726.26      8867487 -0.00015934978 -0.00051638967 -0.00012763622 
 1913000    2.6341987 0.0023980689    279726.26    8870869.2 -0.00014787183 -0.00050094743 -0.00014041237 
 1914000    2.6338988 0.0024020574    279726.26    8874343.1 -0.00015767539 -0.0004995016 -0.00015582076 
 1915000    2.6337498 0.0024038396    279726.26    8877951.4 -0.00012078584 -0.00050785914 -0.0001537014 
 1916000    2.6381742 0.0024136849    279726.26    8881658.1 -0.00015353982 -0.00049351504 -0.00017812516 
 1917000    2.6339885 0.0023969068    279726.26      8885373 -0.00027823435 -0.00053400722 -0.00013410939 
 1918000    2.6362642 0.0023931349    279726.26    8889068.6 -0.00022777883 -0.00048300099 -0.00014569506 
 1919000     2.636326 0.0023942185    279726.26    8892758.7 -0.00018516417 -0.00068426137 -5.3739485e-05 
 1920000    2.6415509 0.0024065532    279726.26      8896596 -0.00013596849 -0.00068045794 -4.4778809e-05 
 1921000    2.6358474 0.0023998947    279726.26    8900586.6 -0.00017095302 -0.00068504317 -2.0524672e-05 
 1922000    2.6368297 0.0023935859    279726.26      8904626 -0.00013195206 -0.00072901942 -5.4902217e-05 
 1923000    2.6423219 0.0024009173    279726.26    8908319.5 -0.00011084104 -0.00056749918 -1.8982834e-05 
 1924000    2.6369357 0.0024094963    279726.26    8911909.9 -6.5897215e-05 -0.00049090884 -4.5125606e-05 
 1925000    2.6348052 0.0024000111    279726.26    8915752.5 -0.00011291575 -0.00046477023 -3.3988274e-05 
 1926000    2.6341656 0.0024026671    279726.26    8919545.3 -5.5640089e-05 -0.00040243597 -9.9454809e-05 
 1927000    2.6386688  0.002392025    279726.26    8923450.7 -8.10175e-05 -0.00041107215 -6.9310814e-05 
 1928000    2.6342719 0.0023966063    279726.26      8927350 -0.00018426024 -0.00047439555 -0.00022416058 
 1929000    2.6357893 0.0024173369    279726.26    8931320.7 -0.00015358522 -0.00049032293 -0.00021872257 
 1930000    2.6348523 0.0024271255    279726.26    8935420.8 -0.00012935397 -0.00049909591 -0.0002664648 
 1931000    2.6364119 0.0023991328    279726.26    8939522.5 -0.00016523704 -0.00044528202 -0.00024991719 
 1932000    2.6400176 0.0024009153    279726.26    8943562.3 -0.0002072073 -0.00060085307 -8.1141924e-05 
 1933000    2.6355512 0.0023984517    279726.26    8947645.5 -0.0002058442 -0.00058665045 -6.5407131e-05 
 1934000    2.6353157  0.002397051    279726.26    8951691.6 -0.00022005758 -0.00060134491 -1.1220247e-05 
 1935000    2.6393765 0.0023905931    279726.26    8955837.5 -0.0002101466 -0.00060707087 -3.5743198e-05 
 1936000    2.6388009 0.0023951346    279726.26    8959905.7 -0.00016368867 -0.00063509807 -6.9918768e-06 
 1937000    2.6366924 0.0023941519    279726.26      8964123 -0.0001860335 -0.00064868928 -3.0240453e-05 
 1938000    2.6382163 0.0023894567    279726.26    8968408.4 3.9031508e-05 -0.00068365658 -0.00030590237 
 1939000    2.6346832 0.0023960857    279726.26    8972909.8 -3.861809e-05 -0.00078705221 -0.00020278415 
 1940000    2.6359866 0.0023952836    279726.26    8977387.4 7.2584143e-05 -0.00074489826 -0.00022104177 
 1941000    2.6394785 0.0024068119    279726.26    8981870.8 -4.4888821e-06 -0.00069513265 -0.00023690697 
 1942000    2.6377201 0.0023978055    279726.26    8985935.5 0.00010264678 -0.00087601973 -0.00040310968 
 1943000    2.6324061 0.0023950908    279726.26    8989899.2 8.2421727e-05 -0.00089546478 -0.00042961699 
 1944000    2.6399318 0.0023882456    279726.26    8993930.1 0.00016632321 -0.00090085928 -0.00030459176 
 1945000    2.6331164 0.0023949047    279726.26    8998370.8 0.00018254898 -0.00092806158 -0.00033887472 
 1946000    2.6350709 0.0024087313    279726.26    9003024.4 5.7218757e-05 -0.00098244591 -0.00035316943 
 1947000     2.634766 0.0023921334    279726.26    9007653.2 2.7448342e-06 -0.00099846825 -0.00047982985 
 1948000    2.6313802 0.0023976607    279726.26    9012201.8 1.7457275e-05 -0.00098570507 -0.00048111633 
 1949000     2.633937 0.0023932889    279726.26    9016855.3 3.1381386e-05 -0.00097723442 -0.00050133549 
 1950000    2.6355963 0.0023917861    279726.26    9021626.5 2.6646575e-05 -0.00099155642 -0.00047373313 
 1951000    2.6341258 0.0024165637    279726.26    9026364.8 6.2652918e-05 -0.0010108918 -0.00056587929 
 1952000    2.6336372 0.0023935919    279726.26    9031072.7 7.6777757e-05 -0.0010013283 -0.00057138092 
 1953000    2.6325613 0.0023955964    279726.26    9035892.8 4.5963125e-05 -0.0010301562 -0.00050051797 
 1954000    2.6369296  0.002402067    279726.26    9040813.7 2.3092511e-05 -0.0010337025 -0.00046390656 
 1955000    2.6332134 0.0023956293    279726.26    9045754.8 9.1416356e-05 -0.00095325813 -0.00046830662 
 1956000    2.6331341 0.0023947672    279726.26    9050560.6 7.7200743e-05 -0.00094749102 -0.00045209159 
 1957000    2.6287053 0.0024442043    279726.26    9055269.7 -0.00010316871 -0.0012348146 -0.00044749727 
 1958000     2.634468 0.0023943688    279726.26    9059907.7 2.2114116e-05 -0.00099074818 -0.00038225693 
 1959000    2.6365653 0.0023954499    279726.26    9064570.9 -2.9710626e-05 -0.0009767575 -0.00031041479 
 1960000     2.631277 0.0023983087    279726.26    9069177.6 -0.00010460499 -0.00092775775 -0.0002687633 
 1961000    2.6348887 0.0023935814    279726.26    9074043.9 -2.8109666e-05 -0.00087692422 -0.00033500988 
 1962000    2.6295008 0.0024669091    279726.26    9079262.5 -0.00014024465 -0.0011260083 -0.00041677974 
 1963000    2.6342086 0.0023966642    279726.26    9084494.8 4.0598258e-05 -0.00070452874 -0.00043787299 
 1964000    2.6331463 0.0023942787    279726.26    9089367.1 4.009959e-05 -0.00066359632 -0.00035005345 
 1965000    2.6347983 0.0023962375    279726.26    9094134.4 9.4323943e-05 -0.00066225643 -0.00034849493 
 1966000    2.6312746 0.0023983134    279726.26    9098994.3 0.00010128396 -0.00067335716 -0.00035936982 
 1967000    2.6321389 0.0023957502    279726.26    9103963.7 9.1327008e-05 -0.00067707076 -0.00028361486 
 1968000    2.6339923 0.0023955404    279726.26    9108791.3 8.9376029e-05 -0.00063109552 -0.00035176561 
 1969000    2.6364535  0.002392829    279726.26    9113599.8 -3.5087486e-05 -0.00059117523 -0.00018576262 
 1970000    2.6341081 0.0023944303    279726.26    9118501.2 -5.1289598e-05 -0.00059500419 -0.00020642979 
 1971000    2.6358107 0.0023947056    279726.26    9123302.5 -0.0001272182 -0.00051381005 -0.00012700596 
 1972000    2.6344876 0.0023965339    279726.26      9127759 -7.5888782e-05 -0.00049035658 -0.00010544833 
 1973000    2.6332557 0.0023948693    279726.26    9132147.2 -0.00017199602 -0.00059005645 -2.5422891e-05 
 1974000    2.6376199 0.0023977861    279726.26    9136536.4 -0.00010765686 -0.00055857928 -9.4638213e-06 
 1975000    2.6274566 0.0024720868    279726.26    9141177.2 -0.00010144041 -0.00050934228 5.7631721e-05 
 1976000    2.6343575 0.0023978491    279726.26    9145954.6 -2.1839534e-05 -0.00046718929 3.6422349e-05 
 1977000    2.6392529 0.0024035542    279726.26    9150564.4 6.5847654e-05 -0.00048862779 2.6893639e-05 
 1978000     2.632085 0.0023962266    279726.26    9154991.5 5.0117547e-05 -0.00044539502 3.5958493e-05 
 1979000    2.6340017 0.0023932065    279726.26    9159254.2 0.00013551513 -0.0003902214 2.2184524e-06 
 1980000    2.6369781 0.0023914402    279726.26    9163383.8 7.2016333e-05 -0.00039966043 1.8101386e-05 
 1981000    2.6328194 0.0023947096    279726.26    9167882.4 2.3533858e-05 -0.00036027032 1.1462915e-05 
 1982000    2.6351118 0.0023994049    279726.26      9172114 -6.78653e-06 -0.00039738013 8.062819e-06 
 1983000    2.6334323 0.0024169801    279726.26    9176305.2 -2.8319134e-05 -0.00047639668 4.2444076e-05 
 1984000    2.6345881  0.002393137    279726.26    9180620.5 -6.713678e-05 -0.00047394191 -5.20862e-06 
 1985000    2.6355039 0.0023904701    279726.26    9184981.6 -2.7311755e-05 -0.00049801223 -3.2782019e-05 
 1986000    2.6349988 0.0023977311    279726.26    9189450.1 2.4956144e-05 -0.00045328239 -3.456958e-05 
 1987000    2.6351186 0.0023919387    279726.26    9193957.9 2.0643476e-05 -0.00043599259 -3.0693158e-05 
 1988000    2.6342538 0.0023963616    279726.26    9198598.4 -3.8652745e-05 -0.0004219879 -0.00010698593 
 1989000    2.6347613 0.0023999706    279726.26    9203363.4 -4.3249043e-05 -0.0004814002 -4.6330078e-05 
 1990000    2.6326133 0.0023960254    279726.26      9208461 3.5146905e-05 -0.00052988113 -0.00012390357 
 1991000    2.6341218 0.0024016603    279726.26    9213613.3 4.6204354e-05 -0.00053533639 -0.00010220744 
 1992000    2.6330164 0.0023951167    279726.26    9218632.5 4.2028368e-06 -0.00055541476 -8.9022821e-05 
 1993000    2.6345538 0.0023936587    279726.26    9223553.5 8.8974196e-05 -0.00058239067 -0.00010122513 
 1994000    2.6435088 0.0024011842    279726.26    9228387.6 5.7073343e-05 -0.00058545847 -0.00012445768 
 1995000    2.6302091   0.00243517    279726.26      9233213 3.2276791e-05 -0.00089975363 -0.00011076679 
 1996000    2.6332127 0.0023943373    279726.26    9238193.2 0.00019191282 -0.00048064602 -0.00014369257 
 1997000    2.6324161 0.0024222168    279726.26    9243314.2 7.1030876e-05 -0.00045988095 -0.00012419013 
 1998000    2.6326083 0.0023954091    279726.26    9248525.7 5.5219733e-06 -0.00049080069 -8.234373e-05 
 1999000    2.6371585 0.0024055836    279726.26    9253825.2 -2.4269609e-05 -0.00044586902 3.3276846e-06 
 2000000    2.6330229 0.0023954834    279726.26    9259272.4 4.7472236e-05 -0.00050786303 -3.1419144e-05 
Loop time of 880.567 on 1 procs for 2000000 steps with 256 atoms

Pair  time (%) = 5.98355 (0.679511)
Neigh time (%) = 30.4563 (3.45871)
Comm  time (%) = 4.24464 (0.482035)
Outpt time (%) = 0.203978 (0.0231644)
Other time (%) = 839.678 (95.3566)

Nlocal:    256 ave 256 max 256 min
Histogram: 1 0 0 0 0 0 0 0 0 0
Nghost:    62 ave 62 max 62 min
Histogram: 1 0 0 0 0 0 0 0 0 0
Neighs:    7 ave 7 max 7 min
Histogram: 1 0 0 0 0 0 0 0 0 0

Total # of neighbors = 7
Ave neighs/atom = 0.0273438
Neighbor list builds = 160304
Dangerous builds = 1372
#	run			10000
	unfix			1
	uncompute		myKE
	uncompute		myPE
	uncompute		myStress
	uncompute		flux
	uncompute		myDis
	unfix			JJ

	next seed
	next iseed
jump lmp.in.gk loop_seed
variable iseed loop 5
variable seed index 11111 22222 33333 44444 55555 ###66666 77777 88888 99999 11112
clear

# Lennard-Jones
#Prepare Geometry---------------------------------------------------------------
units			lj
atom_style		atomic
read_data		lmp.in.x0.1
  orthogonal box = (0 0 0) to (65.4 65.4 65.4)
  1 by 1 by 1 MPI processor grid
  256 atoms
#Initialize Structure-----------------------------------------------------------
#mass           	1  1.0
#group         		Ar type = 1
#LJ Potentials------------------------------------------------------------------
pair_style		lj/cut 2.5
pair_coeff		* * 1.0 1.0
pair_modify          	shift yes
#pair_modify   	tail no

#Variables----------------------------------------------------------------------
#LJ Parameters
variable    	kB 		equal 1.3806504e-23 	# [J/K] Boltzmann
variable	sigma_Ar 	equal 3.4e-10 		# m
variable	eps_Ar		equal 1.67e-21		# J
variable	mass_Ar		equal 6.63e-26		# kg
variable	tau_Ar		equal 2.1423e-12	# s
#thermo Parameters
variable    	T_melt 		equal 300*(${kB}/${eps_Ar})
variable    	T_melt 		equal 300*(1.3806504000000001236e-23/${eps_Ar})
variable    	T_melt 		equal 300*(1.3806504000000001236e-23/1.6699999999999999942e-21)
variable	T_0K		equal 0.00001
variable	T_2_5K		equal 2.5*(${kB}/${eps_Ar})
variable	T_2_5K		equal 2.5*(1.3806504000000001236e-23/${eps_Ar})
variable	T_2_5K		equal 2.5*(1.3806504000000001236e-23/1.6699999999999999942e-21)
variable	T_5K		equal 5*(${kB}/${eps_Ar})
variable	T_5K		equal 5*(1.3806504000000001236e-23/${eps_Ar})
variable	T_5K		equal 5*(1.3806504000000001236e-23/1.6699999999999999942e-21)
variable	T_10K		equal 10*(${kB}/${eps_Ar})
variable	T_10K		equal 10*(1.3806504000000001236e-23/${eps_Ar})
variable	T_10K		equal 10*(1.3806504000000001236e-23/1.6699999999999999942e-21)
variable	T_15K		equal 15*(${kB}/${eps_Ar})
variable	T_15K		equal 15*(1.3806504000000001236e-23/${eps_Ar})
variable	T_15K		equal 15*(1.3806504000000001236e-23/1.6699999999999999942e-21)
variable	T_320K		equal 320*(${kB}/${eps_Ar})
variable	T_320K		equal 320*(1.3806504000000001236e-23/${eps_Ar})
variable	T_320K		equal 320*(1.3806504000000001236e-23/1.6699999999999999942e-21)

variable   	dt 		equal 0.002
variable	quench_rate	equal 1.0
variable	quench_length 	equal 10000
#kappa parameters
variable    	p 		equal 200000 		# correlation length
variable    	s 		equal 5  		# sample interval
variable    	d 		equal $p*$s 		# dump interval
variable    	d 		equal 200000*$s 		
variable    	d 		equal 200000*5 		

#SED parameters
variable	w_step		equal 2^5
variable	w_total		equal 2^16
variable	t_total		equal 2^18
variable	num_ffts	equal ${t_total}/${w_total}
variable	num_ffts	equal 262144/${w_total}
variable	num_ffts	equal 262144/65536

#------------ RUN TEMP ---------------------------------------------------------------------
variable 	T_run 		equal ${T_320K}
variable 	T_run 		equal 2.6455576526946114058
#------------ RUN TEMP ---------------------------------------------------------------------

log 	log_heat_${iseed}.lammps
log 	log_heat_4.lammps
