
#------------ NVE rescale ---------------------------------------------------------------------

	velocity 		all create ${T_run} ${seed} rot yes dist gaussian
	velocity 		all create 2.4802102994011980819 ${seed} rot yes dist gaussian
	velocity 		all create 2.4802102994011980819 88888 rot yes dist gaussian

	fix 			1 all nve
	fix 			2 all temp/rescale 1 ${T_run} ${T_run} 0.01 1.0
	fix 			2 all temp/rescale 1 2.4802102994011980819 ${T_run} 0.01 1.0
	fix 			2 all temp/rescale 1 2.4802102994011980819 2.4802102994011980819 0.01 1.0
	timestep		${dt}
	timestep		0.0020000000000000000416
	thermo_style  		custom step temp press etotal vol
	thermo			1000
	run             	200000
Memory usage per processor = 2.23315 Mbytes
Step Temp Press TotEng Volume 
       0    2.4802103 0.0022091225    -1.815808    284904.75 
    1000    2.4802103 0.0017036279    2.7330383    284904.75 
    2000    2.4854221 0.0019421127     2.886588    284904.75 
    3000    2.4819496  0.001939359    2.8245357    284904.75 
    4000    2.4744231 0.0018739952    2.8706089    284904.75 
    5000    2.4886321 0.0018774036     2.872354    284904.75 
    6000    2.4868251 0.0018761661    2.8721033    284904.75 
    7000    2.4819916 0.0020572998    2.8737727    284904.75 
    8000    2.4806975 0.0021742876    2.8415293    284904.75 
    9000    2.4863749 0.0020811834    2.8886384    284904.75 
   10000    2.4752712 0.0019180773    2.8713365    284904.75 
   11000    2.4806787 0.0020291811    2.9181473    284904.75 
   12000    2.4785123 0.0021418716    2.8882962    284904.75 
   13000    2.4752173 0.0021644178     2.903012    284904.75 
   14000    2.4883184  0.002039909    2.9206844    284904.75 
   15000    2.4782142 0.0020873252    2.9356517    284904.75 
   16000    2.4779732 0.0021656098    2.9035075    284904.75 
   17000    2.4742281 0.0020926437    2.9211762    284904.75 
   18000    2.4771019 0.0020472012    2.9813325    284904.75 
   19000     2.481279 0.0021351652    2.9653229    284904.75 
   20000    2.4809474 0.0020104535    2.9495317    284904.75 
   21000    2.4868939 0.0021251593    2.9348693    284904.75 
   22000     2.471864 0.0020545716    2.9511229    284904.75 
   23000    2.4722425 0.0021280353    2.9360354    284904.75 
   24000    2.4809262 0.0020751042    2.9676292    284904.75 
   25000    2.4869817 0.0020200817    2.9981951    284904.75 
   26000    2.4772501  0.002201828    2.9988577    284904.75 
   27000    2.4782501 0.0019358803    3.0002216    284904.75 
   28000    2.4820085 0.0021141734      2.98429    284904.75 
   29000    2.4762514 0.0021535312    3.0009983    284904.75 
   30000    2.4727271 0.0021218653    3.0008309    284904.75 
   31000    2.4891398 0.0020587788    3.0485563    284904.75 
   32000    2.4753706 0.0021990093    3.0476326    284904.75 
   33000    2.4804709 0.0020392984    3.0477073    284904.75 
   34000    2.4752357 0.0021891919    3.0466742    284904.75 
   35000    2.4839061 0.0021592329     3.063312    284904.75 
   36000    2.4729099 0.0020333052    3.0622412    284904.75 
   37000    2.4863107 0.0019555179     3.092881    284904.75 
   38000    2.4771612 0.0021259945    3.0758988    284904.75 
   39000    2.4829971 0.0020616624    3.0453384    284904.75 
   40000    2.4736142 0.0019725553     3.060524    284904.75 
   41000    2.4762363 0.0020808418    3.0617101    284904.75 
   42000    2.4813714 0.0023743254    3.0750863    284904.75 
   43000    2.4898835 0.0021109315    3.0901896    284904.75 
   44000    2.4773695 0.0020652474     3.074366    284904.75 
   45000    2.4756972 0.0021526193    3.0917471    284904.75 
   46000    2.4743414 0.0020435402    3.1215475    284904.75 
   47000    2.4885764 0.0021554677    3.1843308    284904.75 
   48000    2.4808281 0.0020835413    3.1847794    284904.75 
   49000    2.4835117 0.0020520797     3.184136    284904.75 
   50000    2.4810828 0.0022533088    3.2005877    284904.75 
   51000    2.4820451 0.0021291986    3.2184121    284904.75 
   52000     2.485389 0.0020807924    3.1884228    284904.75 
   53000    2.4756654 0.0021261009    3.2233593    284904.75 
   54000     2.477078 0.0021194661    3.1912733    284904.75 
   55000    2.4843686 0.0020943203    3.2069994    284904.75 
   56000    2.4817673 0.0020497332     3.206788    284904.75 
   57000     2.480257 0.0021433676    3.2061556    284904.75 
   58000    2.4709431 0.0021783157    3.2527119    284904.75 
   59000    2.4748225  0.002196217    3.2368026    284904.75 
   60000    2.4877638 0.0020015952    3.2671782    284904.75 
   61000    2.4797057 0.0020581833    3.2528433    284904.75 
   62000    2.4866789 0.0022970459    3.2534813    284904.75 
   63000    2.4782666  0.002097629    3.2672686    284904.75 
   64000    2.4768727 0.0020728247    3.2675065    284904.75 
   65000    2.4848628 0.0021503142    3.2673284    284904.75 
   66000    2.4825874 0.0021606503    3.2694566    284904.75 
   67000    2.4775135 0.0020850172    3.2843411    284904.75 
   68000    2.4828613 0.0021834697    3.2996559    284904.75 
   69000    2.4802448  0.002183883     3.284692    284904.75 
   70000    2.4769974 0.0021322346    3.2998287    284904.75 
   71000    2.4805152 0.0020735011    3.2700621    284904.75 
   72000    2.4835134 0.0021424415     3.285057    284904.75 
   73000    2.4773828  0.002261231    3.3000108    284904.75 
   74000      2.47717 0.0021291273    3.3001898    284904.75 
   75000    2.4831213 0.0021444187    3.3000245    284904.75 
   76000     2.476348 0.0020724536     3.299938    284904.75 
   77000    2.4771076 0.0020738675    3.3483913    284904.75 
   78000    2.4791294 0.0021940303    3.3781452    284904.75 
   79000    2.4805737 0.0020589743    3.3783896    284904.75 
   80000    2.4844068 0.0021691927    3.4100322    284904.75 
   81000    2.4763333 0.0021120501    3.3972828    284904.75 
   82000    2.4783457 0.0021908197    3.4043885    284904.75 
   83000    2.4758363 0.0020920991    3.4183207    284904.75 
   84000    2.4773374 0.0022229061    3.4334638    284904.75 
   85000    2.4802253 0.0021667839    3.4333957    284904.75 
   86000    2.4805067 0.0021873147    3.4344048    284904.75 
   87000     2.477046 0.0021502519    3.4370861    284904.75 
   88000    2.4858748 0.0020954688    3.4525791    284904.75 
   89000     2.478217 0.0021490032    3.4707004    284904.75 
   90000    2.4726897 0.0020734359    3.4856841    284904.75 
   91000     2.477237 0.0021090297    3.4856077    284904.75 
   92000     2.479145 0.0021999792    3.5316341    284904.75 
   93000    2.4860227 0.0021451762    3.5166563    284904.75 
   94000    2.4772612 0.0022023759    3.5163943    284904.75 
   95000    2.4813202 0.0022087566    3.5164862    284904.75 
   96000     2.472567 0.0021761365     3.531614    284904.75 
   97000    2.4880525 0.0021413469    3.5471249    284904.75 
   98000     2.475173 0.0021259328     3.532295    284904.75 
   99000    2.4871712 0.0022482668    3.5177283    284904.75 
  100000    2.4704741  0.002180015    3.5330669    284904.75 
  101000    2.4745957 0.0021468209    3.5479562    284904.75 
  102000    2.4702171 0.0021685021    3.5336089    284904.75 
  103000    2.4825763 0.0021681835    3.5487769    284904.75 
  104000    2.4834602 0.0021786161    3.5488321    284904.75 
  105000    2.4826486 0.0021878861    3.5338345    284904.75 
  106000    2.4845859 0.0021355858    3.5490213    284904.75 
  107000    2.4770567 0.0022125278    3.5488734    284904.75 
  108000    2.4842651 0.0021743367    3.5501633    284904.75 
  109000    2.4708026 0.0021945522    3.5501544    284904.75 
  110000    2.4777215 0.0021391294      3.56552    284904.75 
  111000    2.4842493 0.0021577426    3.5572584    284904.75 
  112000    2.4814935 0.0022250971    3.5708491    284904.75 
  113000    2.4848766 0.0022157249    3.5704512    284904.75 
  114000    2.4758887 0.0021788186    3.5554848    284904.75 
  115000    2.4873535 0.0021964651    3.5717499    284904.75 
  116000     2.482331 0.0021934559     3.556507    284904.75 
  117000    2.4833845 0.0021632341    3.5714825    284904.75 
  118000    2.4794376 0.0022165358     3.571773    284904.75 
  119000    2.4827352 0.0022038413    3.5717509    284904.75 
  120000    2.4772545 0.0021825328    3.5572492    284904.75 
  121000    2.4745566 0.0022967364     3.557159    284904.75 
  122000    2.4871285 0.0022170894    3.5723667    284904.75 
  123000    2.4843551 0.0022129117    3.5722838    284904.75 
  124000      2.47451 0.0021636478    3.5567829    284904.75 
  125000    2.4806093 0.0021622206    3.5721925    284904.75 
  126000    2.4809662 0.0021871842    3.5721965    284904.75 
  127000    2.4793508 0.0021556428     3.572624    284904.75 
  128000    2.4714472 0.0021395194    3.5724117    284904.75 
  129000    2.4803743 0.0021698659    3.5724242    284904.75 
  130000    2.4841232 0.0022357377    3.5762132    284904.75 
  131000    2.4858788 0.0021807519    3.5637064    284904.75 
  132000     2.479642 0.0021660167    3.5795042    284904.75 
  133000    2.4760699 0.0022639738    3.5789201    284904.75 
  134000    2.4846846 0.0021706073    3.5777353    284904.75 
  135000    2.4841138 0.0021420073    3.5778229    284904.75 
  136000     2.479593 0.0021861202     3.577066    284904.75 
  137000    2.4760681 0.0022095556    3.5770501    284904.75 
  138000    2.4877906 0.0021848107    3.5767708    284904.75 
  139000     2.477279 0.0021429636    3.5767734    284904.75 
  140000    2.4841698  0.002146789    3.5767731    284904.75 
  141000    2.4728953 0.0022129451    3.5767739    284904.75 
  142000    2.4770136 0.0021741867    3.5769324    284904.75 
  143000    2.4820482 0.0021769845    3.5918328    284904.75 
  144000    2.4787996 0.0021393448    3.5928141    284904.75 
  145000    2.4764962 0.0021585503    3.5924563    284904.75 
  146000    2.4718071 0.0021480138    3.5769535    284904.75 
  147000    2.4824983 0.0022254063     3.607307    284904.75 
  148000    2.4832178 0.0022398926    3.5923033    284904.75 
  149000    2.4747038 0.0021549908    3.5922895    284904.75 
  150000    2.4777132 0.0021638292    3.5921896    284904.75 
  151000    2.4820033 0.0021963027     3.608142    284904.75 
  152000     2.478867 0.0022244548    3.6081834    284904.75 
  153000    2.4761521  0.002214483     3.608179    284904.75 
  154000    2.4809034 0.0022618118    3.6081453    284904.75 
  155000    2.4824509 0.0021965164    3.6083613    284904.75 
  156000    2.4766009  0.002168398    3.6096254    284904.75 
  157000    2.4884854  0.002188981    3.6246703    284904.75 
  158000    2.4727484 0.0021609945    3.6103458    284904.75 
  159000    2.4791138 0.0021683267     3.610884    284904.75 
  160000     2.481663  0.002154162    3.6108847    284904.75 
  161000    2.4802031 0.0022031972     3.628691    284904.75 
  162000    2.4789745 0.0021902685    3.6436853    284904.75 
  163000    2.4798755  0.002174866    3.6434523    284904.75 
  164000    2.4781837 0.0021807946    3.6443027    284904.75 
  165000     2.474038 0.0021923553    3.6292072    284904.75 
  166000    2.4769237 0.0021877931    3.6291913    284904.75 
  167000    2.4800917 0.0021923628    3.6442239    284904.75 
  168000    2.4886828 0.0021963831    3.6443931    284904.75 
  169000    2.4776456 0.0021938101    3.6443942    284904.75 
  170000    2.4755515 0.0021758672    3.6465417    284904.75 
  171000    2.4804177 0.0022191812    3.6465416    284904.75 
  172000    2.4790568 0.0022208739    3.6460658    284904.75 
  173000    2.4805354 0.0021812152    3.6460616    284904.75 
  174000    2.4866304 0.0021828639    3.6483691    284904.75 
  175000    2.4830851 0.0021828317    3.6483676    284904.75 
  176000    2.4781187 0.0022242465    3.6483803    284904.75 
  177000     2.488485 0.0021848484    3.6483811    284904.75 
  178000    2.4810971  0.002235981    3.6496815    284904.75 
  179000    2.4829618 0.0021878698    3.6496798    284904.75 
  180000    2.4861759 0.0021750755    3.6496786    284904.75 
  181000    2.4866148 0.0022467332    3.6496752    284904.75 
  182000    2.4782304 0.0022059967    3.6346985    284904.75 
  183000    2.4772263 0.0022308834    3.6347327    284904.75 
  184000    2.4854643 0.0021989491    3.6512511    284904.75 
  185000    2.4856278 0.0022178041    3.6512507    284904.75 
  186000    2.4824896 0.0022069427    3.6512526    284904.75 
  187000    2.4769162 0.0021891251    3.6362417    284904.75 
  188000    2.4872585 0.0022323161    3.6513903    284904.75 
  189000    2.4753053 0.0022220956    3.6364412    284904.75 
  190000    2.4793669 0.0022477855    3.6367415    284904.75 
  191000    2.4845779 0.0022140729    3.6532168    284904.75 
  192000    2.4781316 0.0021991936    3.6382507    284904.75 
  193000    2.4767029 0.0022371016    3.6381166    284904.75 
  194000    2.4765028 0.0021942091    3.6381147    284904.75 
  195000    2.4747263  0.002192344    3.6378369    284904.75 
  196000    2.4739351 0.0021809765    3.6377823    284904.75 
  197000    2.4742973 0.0022089157    3.6395034    284904.75 
  198000    2.4741512 0.0022009193    3.6395044    284904.75 
  199000    2.4884753 0.0022149483    3.6544856    284904.75 
  200000    2.4737294 0.0022401884    3.6394517    284904.75 
Loop time of 6.54695 on 1 procs for 200000 steps with 256 atoms

Pair  time (%) = 1.34929 (20.6095)
Neigh time (%) = 3.8033 (58.0926)
Comm  time (%) = 0.315966 (4.82615)
Outpt time (%) = 0.00806952 (0.123256)
Other time (%) = 1.07033 (16.3485)

Nlocal:    256 ave 256 max 256 min
Histogram: 1 0 0 0 0 0 0 0 0 0
Nghost:    74 ave 74 max 74 min
Histogram: 1 0 0 0 0 0 0 0 0 0
Neighs:    34 ave 34 max 34 min
Histogram: 1 0 0 0 0 0 0 0 0 0

Total # of neighbors = 34
Ave neighs/atom = 0.132812
Neighbor list builds = 18954
Dangerous builds = 11783
#	run             	1000
	unfix 			1
	unfix 			2

#------------ NVE -----------------------------------------------------------------------------

	fix 			1 all nve
	timestep		${dt}
	timestep		0.0020000000000000000416
	thermo_style  		custom step temp press etotal vol
	thermo			1000
	run             	100000
Memory usage per processor = 2.23315 Mbytes
Step Temp Press TotEng Volume 
  200000    2.4737294 0.0022401884    3.6394517    284904.75 
  201000    2.4803552 0.0021810311      3.63945    284904.75 
  202000    2.4764324 0.0021929249    3.6394508    284904.75 
  203000    2.4741787 0.0021856835    3.6394488    284904.75 
  204000     2.479581 0.0021845349    3.6394482    284904.75 
  205000    2.4679323 0.0021949136    3.6394492    284904.75 
  206000    2.4731573 0.0022044066    3.6394471    284904.75 
  207000    2.4754204 0.0021983173    3.6394448    284904.75 
  208000    2.4758022 0.0022315808    3.6394397    284904.75 
  209000    2.4746443  0.002188879    3.6394449    284904.75 
  210000    2.4708132 0.0021791329    3.6394429    284904.75 
  211000    2.4707985 0.0021985643    3.6394417    284904.75 
  212000    2.4765895 0.0021803983    3.6394412    284904.75 
  213000    2.4763657 0.0022034848    3.6394412    284904.75 
  214000    2.4715439 0.0021851632    3.6394447    284904.75 
  215000    2.4700359 0.0022165791    3.6394445    284904.75 
  216000    2.4706535 0.0021954534    3.6394435    284904.75 
  217000    2.4733196 0.0021830532    3.6394461    284904.75 
  218000    2.4718203 0.0021812157    3.6394485    284904.75 
  219000    2.4708991 0.0022085656    3.6394518    284904.75 
  220000    2.4748957 0.0021903479    3.6394509    284904.75 
  221000    2.4799188  0.002230923    3.6394505    284904.75 
  222000    2.4693907 0.0021775648    3.6394507    284904.75 
  223000    2.4746284 0.0022286383    3.6394502    284904.75 
  224000     2.474655 0.0022328084    3.6394506    284904.75 
  225000    2.4761086  0.002260548     3.639438    284904.75 
  226000    2.4741447 0.0021889769    3.6394542    284904.75 
  227000    2.4721463 0.0022131625    3.6394572    284904.75 
  228000    2.4722027 0.0022173817    3.6394566    284904.75 
  229000    2.4693825 0.0021889732    3.6394573    284904.75 
  230000    2.4672577 0.0022277336    3.6394563    284904.75 
  231000    2.4747008 0.0022058726    3.6394545    284904.75 
  232000    2.4646593  0.002155516    3.6394568    284904.75 
  233000    2.4591786 0.0021792094    3.6394589    284904.75 
  234000    2.4551686 0.0022353909    3.6394628    284904.75 
  235000    2.4549638 0.0022270379     3.639459    284904.75 
  236000    2.4633418  0.002211282    3.6394578    284904.75 
  237000    2.4646063 0.0021859522    3.6394574    284904.75 
  238000    2.4566164 0.0022183469    3.6394592    284904.75 
  239000     2.463895 0.0022015067    3.6394604    284904.75 
  240000    2.4594482    0.0021787    3.6394638    284904.75 
  241000    2.4564653 0.0021955016     3.639464    284904.75 
  242000    2.4660819 0.0021924283    3.6394636    284904.75 
  243000     2.459369 0.0022112198    3.6394629    284904.75 
  244000     2.463843 0.0022060497    3.6394617    284904.75 
  245000    2.4558512  0.002179234    3.6394613    284904.75 
  246000       2.4577 0.0021720119    3.6394608    284904.75 
  247000    2.4623472  0.002248956     3.639458    284904.75 
  248000    2.4500516 0.0022121699    3.6394617    284904.75 
  249000    2.4529485 0.0021813697    3.6394592    284904.75 
  250000    2.4548511 0.0021723619    3.6394567    284904.75 
  251000    2.4553841 0.0022307333    3.6394561    284904.75 
  252000     2.456099 0.0022108911    3.6394561    284904.75 
  253000    2.4600231 0.0021640789    3.6394538    284904.75 
  254000    2.4554125 0.0021621696     3.639456    284904.75 
  255000    2.4536664 0.0022028778    3.6394567    284904.75 
  256000    2.4598219 0.0021672938    3.6394536    284904.75 
  257000    2.4553536 0.0021861278    3.6394546    284904.75 
  258000    2.4485462  0.002223578     3.639457    284904.75 
  259000    2.4541374 0.0021772992    3.6394545    284904.75 
  260000    2.4527092 0.0021756646    3.6394538    284904.75 
  261000    2.4544978 0.0021768354    3.6394542    284904.75 
  262000    2.4500906 0.0021722271    3.6394536    284904.75 
  263000    2.4510598 0.0021941011    3.6394525    284904.75 
  264000    2.4545739 0.0021708431    3.6394526    284904.75 
  265000    2.4557113 0.0021786038    3.6394528    284904.75 
  266000    2.4565949  0.002179704    3.6394527    284904.75 
  267000    2.4541918 0.0021765082    3.6394534    284904.75 
  268000    2.4516981 0.0021699312    3.6394529    284904.75 
  269000      2.45583 0.0021777971    3.6394535    284904.75 
  270000    2.4583766 0.0021815864    3.6394526    284904.75 
  271000    2.4532316 0.0021932477    3.6394514    284904.75 
  272000     2.459711 0.0022100513    3.6394507    284904.75 
  273000    2.4514479 0.0021852217    3.6394521    284904.75 
  274000    2.4536117  0.002185368    3.6394516    284904.75 
  275000    2.4511069 0.0021874199    3.6394532    284904.75 
  276000    2.4548531  0.002185811    3.6394522    284904.75 
  277000    2.4496355 0.0021820535    3.6394505    284904.75 
  278000    2.4590104 0.0021989375    3.6394486    284904.75 
  279000     2.452977  0.002185291    3.6394443    284904.75 
  280000    2.4507171 0.0021803449    3.6394472    284904.75 
  281000     2.449411 0.0021750763    3.6394471    284904.75 
  282000    2.4498534 0.0021854734    3.6394463    284904.75 
  283000    2.4512224 0.0021843278    3.6394462    284904.75 
  284000     2.451356 0.0021865254    3.6394446    284904.75 
  285000    2.4538632 0.0021788053    3.6394472    284904.75 
  286000    2.4511742 0.0021894622    3.6394477    284904.75 
  287000    2.4560048 0.0021983481     3.639449    284904.75 
  288000    2.4512168  0.002189632    3.6394483    284904.75 
  289000    2.4542877 0.0022074959    3.6394467    284904.75 
  290000    2.4549042 0.0022064285    3.6394489    284904.75 
  291000    2.4577906  0.002186178    3.6394468    284904.75 
  292000    2.4512733 0.0021844397    3.6394457    284904.75 
  293000    2.4537097  0.002171103    3.6394451    284904.75 
  294000    2.4518926 0.0021900843    3.6394445    284904.75 
  295000    2.4552291  0.002187513    3.6394466    284904.75 
  296000    2.4526579 0.0021814192    3.6394475    284904.75 
  297000    2.4504607 0.0021809074    3.6394482    284904.75 
  298000    2.4503819 0.0021878269    3.6394493    284904.75 
  299000     2.451942 0.0022149289    3.6394363    284904.75 
  300000    2.4472669 0.0021992046    3.6394461    284904.75 
Loop time of 2.36151 on 1 procs for 100000 steps with 256 atoms

Pair  time (%) = 0.190944 (8.08568)
Neigh time (%) = 1.58552 (67.14)
Comm  time (%) = 0.136451 (5.77813)
Outpt time (%) = 0.00416017 (0.176165)
Other time (%) = 0.444437 (18.82)

Nlocal:    256 ave 256 max 256 min
Histogram: 1 0 0 0 0 0 0 0 0 0
Nghost:    70 ave 70 max 70 min
Histogram: 1 0 0 0 0 0 0 0 0 0
Neighs:    15 ave 15 max 15 min
Histogram: 1 0 0 0 0 0 0 0 0 0

Total # of neighbors = 15
Ave neighs/atom = 0.0585938
Neighbor list builds = 8229
Dangerous builds = 0
#	run             	10000
	unfix 			1

#------------ kappa -------------------------------------------------------------------------
log 	log_kappa_${iseed}.lammps
log 	log_kappa_8.lammps
