
#------------ NVE rescale ---------------------------------------------------------------------

	velocity 		all create ${T_run} ${seed} rot yes dist gaussian
	velocity 		all create 2.4802102994011980819 ${seed} rot yes dist gaussian
	velocity 		all create 2.4802102994011980819 77777 rot yes dist gaussian

	fix 			1 all nve
	fix 			2 all temp/rescale 1 ${T_run} ${T_run} 0.01 1.0
	fix 			2 all temp/rescale 1 2.4802102994011980819 ${T_run} 0.01 1.0
	fix 			2 all temp/rescale 1 2.4802102994011980819 2.4802102994011980819 0.01 1.0
	timestep		${dt}
	timestep		0.0020000000000000000416
	thermo_style  		custom step temp press etotal vol
	thermo			1000
	run             	200000
Memory usage per processor = 2.23315 Mbytes
Step Temp Press TotEng Volume 
       0    2.4802103 0.0022091225    -1.815808    284904.75 
    1000      2.48018  0.001795185    2.7312533    284904.75 
    2000    2.4784237 0.0019424286    2.9320462    284904.75 
    3000    2.4813981 0.0018591258     2.948347    284904.75 
    4000    2.4836841 0.0019329692     2.967772    284904.75 
    5000    2.4889283 0.0020242047    2.9664364    284904.75 
    6000    2.4816007 0.0019595527    3.0125194    284904.75 
    7000     2.480967 0.0021139258    2.9972504    284904.75 
    8000     2.489918 0.0019196297    3.0309374    284904.75 
    9000    2.4862175 0.0021212044    3.0320167    284904.75 
   10000    2.4851926 0.0020287559    3.0173749    284904.75 
   11000    2.4709401 0.0021798325    3.0005498    284904.75 
   12000    2.4804612 0.0020795544    3.0161836    284904.75 
   13000    2.4738117  0.002011273    3.0458958    284904.75 
   14000    2.4714488 0.0021071117     3.046418    284904.75 
   15000    2.4840288 0.0021746843    3.0780964    284904.75 
   16000    2.4878735 0.0020981878    3.0778498    284904.75 
   17000    2.4804722 0.0020521148    3.0782455    284904.75 
   18000    2.4793253 0.0020668562    3.1075723    284904.75 
   19000    2.4737059  0.002238439    3.1238745    284904.75 
   20000    2.4829623  0.002113164    3.1408964    284904.75 
   21000    2.4754998 0.0021383772    3.1246329    284904.75 
   22000    2.4764811  0.002090253    3.1560916    284904.75 
   23000     2.487008 0.0021990473    3.1417673    284904.75 
   24000    2.4818621  0.002071377    3.1578671    284904.75 
   25000    2.4884227 0.0021882861    3.1431423    284904.75 
   26000    2.4785064 0.0020883561     3.127727    284904.75 
   27000    2.4798819 0.0020112809    3.1579364    284904.75 
   28000    2.4845035  0.002133615    3.1571517    284904.75 
   29000    2.4779532 0.0021057649    3.1735734    284904.75 
   30000    2.4733327 0.0021807233    3.1582924    284904.75 
   31000    2.4791982 0.0020274973    3.1604265    284904.75 
   32000    2.4852286 0.0020258271    3.1772988    284904.75 
   33000    2.4803753  0.002097509    3.1920764    284904.75 
   34000    2.4731762 0.0021001445    3.1920249    284904.75 
   35000    2.4748087 0.0021772809    3.1917473    284904.75 
   36000    2.4864318  0.002067613    3.1911999    284904.75 
   37000    2.4784126 0.0020542183     3.175456    284904.75 
   38000    2.4804361 0.0021376001    3.2063532    284904.75 
   39000    2.4800915 0.0020827749    3.2064714    284904.75 
   40000    2.4828711 0.0021680414    3.2075941    284904.75 
   41000    2.4803881 0.0020804851    3.1923662    284904.75 
   42000    2.4846659 0.0021771237    3.2080611    284904.75 
   43000     2.482006 0.0021404469    3.2232868    284904.75 
   44000    2.4894646 0.0020945635    3.2385386    284904.75 
   45000     2.489158 0.0020214304    3.2539178    284904.75 
   46000     2.488117 0.0021072956    3.2388624    284904.75 
   47000    2.4740694 0.0022446158    3.2546104    284904.75 
   48000    2.4893157 0.0021673838     3.269964    284904.75 
   49000    2.4815311  0.002019551    3.2707332    284904.75 
   50000    2.4761596 0.0020156444    3.3010445    284904.75 
   51000    2.4814403 0.0022051765    3.2866866    284904.75 
   52000    2.4754835 0.0020612508    3.2881566    284904.75 
   53000    2.4837082 0.0021395699    3.2890433    284904.75 
   54000    2.4788692 0.0020897763     3.304375    284904.75 
   55000    2.4754124 0.0022221571    3.2892302    284904.75 
   56000    2.4865203 0.0021278932    3.3064766    284904.75 
   57000    2.4865589 0.0022096754     3.291468    284904.75 
   58000    2.4828417 0.0021122479    3.3065519    284904.75 
   59000    2.4751442 0.0020963087    3.2915096    284904.75 
   60000    2.4773928 0.0021347156     3.308115    284904.75 
   61000    2.4846226 0.0022218878    3.3085972    284904.75 
   62000    2.4750394 0.0020406208    3.3084318    284904.75 
   63000    2.4802103 0.0022682886    3.3076495    284904.75 
   64000    2.4766588 0.0022454445    3.3232333    284904.75 
   65000    2.4867015 0.0021371624    3.3383298    284904.75 
   66000    2.4769818 0.0022092293    3.3383498    284904.75 
   67000    2.4749568 0.0021407339    3.3231036    284904.75 
   68000    2.4805134 0.0022540116    3.3230503    284904.75 
   69000    2.4783905 0.0021591339     3.338277    284904.75 
   70000    2.4806274 0.0021757476    3.3397429    284904.75 
   71000    2.4843081 0.0021736174      3.33947    284904.75 
   72000    2.4750964 0.0021328716    3.3565474    284904.75 
   73000    2.4786087 0.0021323196    3.3715696    284904.75 
   74000    2.4808422 0.0022027089    3.3578192    284904.75 
   75000    2.4798894  0.002219318    3.3571587    284904.75 
   76000    2.4880038 0.0022358672    3.3876808    284904.75 
   77000    2.4732692 0.0022084819    3.3724997    284904.75 
   78000    2.4749631 0.0022062261    3.3724957    284904.75 
   79000    2.4820263 0.0021796781    3.3874563    284904.75 
   80000     2.484899 0.0020865924    3.3722115    284904.75 
   81000    2.4769668  0.002127997    3.3727337    284904.75 
   82000    2.4787399 0.0022113974    3.3727083    284904.75 
   83000      2.48595 0.0021085809    3.3724359    284904.75 
   84000    2.4842013 0.0021077309    3.3875038    284904.75 
   85000    2.4768854 0.0021175419    3.4027926    284904.75 
   86000    2.4788724 0.0022535643    3.4029149    284904.75 
   87000    2.4855803 0.0021384797    3.3877524    284904.75 
   88000    2.4809272 0.0022014021    3.4039312    284904.75 
   89000    2.4812268 0.0022166007    3.4218272    284904.75 
   90000    2.4799397 0.0022376487    3.4066734    284904.75 
   91000    2.4791863 0.0021341316    3.4213067    284904.75 
   92000    2.4705026 0.0021848266    3.4216015    284904.75 
   93000    2.4753995 0.0021424266     3.407142    284904.75 
   94000    2.4803249 0.0023400134    3.4456032    284904.75 
   95000    2.4763367 0.0021985869    3.4142234    284904.75 
   96000    2.4846814 0.0021746547    3.4141452    284904.75 
   97000    2.4803454 0.0021129137    3.4141305    284904.75 
   98000    2.4849668 0.0021502458    3.4446378    284904.75 
   99000    2.4808709 0.0021077727    3.4451117    284904.75 
  100000    2.4859634 0.0022154334    3.4601588    284904.75 
  101000    2.4797213 0.0021077768    3.4449327    284904.75 
  102000    2.4737599  0.002130586    3.4448167    284904.75 
  103000    2.4786037 0.0021974221    3.4448193    284904.75 
  104000    2.4762823 0.0021714459    3.4444801    284904.75 
  105000    2.4809896 0.0020735602    3.4598202    284904.75 
  106000     2.481619 0.0023163013    3.4447988    284904.75 
  107000    2.4892945 0.0021894186    3.4602869    284904.75 
  108000    2.4773593 0.0020935949    3.4601806    284904.75 
  109000    2.4820066  0.002189978    3.4601163    284904.75 
  110000    2.4788413 0.0022266041    3.4452578    284904.75 
  111000    2.4794497 0.0022546934    3.4603683    284904.75 
  112000    2.4846839 0.0021276775    3.4755167    284904.75 
  113000    2.4794382 0.0021342902    3.4756187    284904.75 
  114000    2.4838193 0.0021933437    3.4905915    284904.75 
  115000     2.474222 0.0021490909    3.4753881    284904.75 
  116000    2.4752171 0.0021389944    3.4906396    284904.75 
  117000    2.4833886  0.002220273    3.4919519    284904.75 
  118000    2.4795065 0.0022588066    3.4928271    284904.75 
  119000    2.4847134 0.0021628025    3.4927799    284904.75 
  120000    2.4850444 0.0020958148    3.4928065    284904.75 
  121000    2.4772202 0.0022133901    3.4929879    284904.75 
  122000    2.4778413 0.0021748895     3.493144    284904.75 
  123000    2.4833068 0.0022342952    3.5240597    284904.75 
  124000    2.4823911 0.0021784405    3.5090161    284904.75 
  125000    2.4759232 0.0022399494    3.5089274    284904.75 
  126000    2.4818843 0.0021536385    3.5090833    284904.75 
  127000    2.4761618 0.0021819508    3.5090825    284904.75 
  128000    2.4826784 0.0022008711    3.5240436    284904.75 
  129000    2.4798648 0.0022689883    3.5250503    284904.75 
  130000    2.4746846  0.002175587    3.5100586    284904.75 
  131000    2.4861697 0.0021747573    3.5252207    284904.75 
  132000    2.4792425 0.0021610262     3.525333    284904.75 
  133000    2.4819942 0.0021816119    3.5260472    284904.75 
  134000    2.4854229 0.0022704639    3.5259846    284904.75 
  135000    2.4859626 0.0021844012    3.5260613    284904.75 
  136000    2.4778351 0.0021754466    3.5262813    284904.75 
  137000    2.4838448  0.002169516    3.5262824    284904.75 
  138000    2.4754017  0.002151142    3.5258359    284904.75 
  139000    2.4787814  0.002152881    3.5258365    284904.75 
  140000    2.4762197 0.0022627869    3.5258392    284904.75 
  141000    2.4769506 0.0021780311    3.5258399    284904.75 
  142000    2.4854159 0.0022168914    3.5258638    284904.75 
  143000    2.4865297 0.0022447574    3.5413276    284904.75 
  144000    2.4831559 0.0021475876    3.5413578    284904.75 
  145000    2.4837234 0.0022024336    3.5411528    284904.75 
  146000    2.4796923 0.0021749317     3.541155    284904.75 
  147000     2.487309 0.0021246496    3.5411535    284904.75 
  148000    2.4843371 0.0021504238    3.5471953    284904.75 
  149000    2.4755468 0.0021881115    3.5319331    284904.75 
  150000    2.4888646 0.0021452062    3.5470866    284904.75 
  151000    2.4895761 0.0022541969    3.5488179    284904.75 
  152000    2.4819611  0.002243606    3.5337832    284904.75 
  153000     2.478548 0.0022455658    3.5334592    284904.75 
  154000    2.4847128 0.0021777958    3.5634767    284904.75 
  155000    2.4771773 0.0022148037    3.5484364    284904.75 
  156000    2.4793413 0.0022022936    3.5484926    284904.75 
  157000    2.4830678 0.0022603437    3.5483157    284904.75 
  158000    2.4760589 0.0022025853    3.5483231    284904.75 
  159000    2.4815029 0.0021518029    3.5483084    284904.75 
  160000    2.4750927 0.0021542174    3.5797537    284904.75 
  161000    2.4797221 0.0021495782    3.5800489    284904.75 
  162000    2.4721567 0.0022365014    3.5807255    284904.75 
  163000    2.4752633 0.0021597251    3.5807238    284904.75 
  164000    2.4735685 0.0021769574    3.5813667    284904.75 
  165000    2.4743227 0.0022030404    3.5821725    284904.75 
  166000    2.4749022 0.0022369136    3.5820541    284904.75 
  167000    2.4717652 0.0022055247    3.5820569    284904.75 
  168000    2.4755253 0.0021703856    3.5834319    284904.75 
  169000    2.4840576 0.0022034347     3.599453    284904.75 
  170000    2.4759309 0.0022028464    3.5862209    284904.75 
  171000    2.4754906 0.0021284702     3.586225    284904.75 
  172000    2.4896644 0.0022249509    3.6024977    284904.75 
  173000    2.4826651 0.0021737982    3.6028227    284904.75 
  174000    2.4870266  0.002196086    3.6017851    284904.75 
  175000     2.479475 0.0021792881     3.600578    284904.75 
  176000     2.478715 0.0022235597    3.6005824    284904.75 
  177000    2.4817461  0.002196144    3.5852986    284904.75 
  178000    2.4755194 0.0022092396    3.6002902    284904.75 
  179000    2.4789823 0.0022386535    3.6002866    284904.75 
  180000    2.4753837 0.0022032955    3.6002872    284904.75 
  181000    2.4821236 0.0021470997    3.6002863    284904.75 
  182000    2.4834342  0.002180243    3.6016239    284904.75 
  183000    2.4790832  0.002184582    3.6172824    284904.75 
  184000      2.48563 0.0021940056    3.6172818    284904.75 
  185000    2.4819277  0.002225421    3.6176287    284904.75 
  186000    2.4772073 0.0022092801    3.6176312    284904.75 
  187000    2.4845799 0.0022180841    3.6176311    284904.75 
  188000    2.4841337 0.0022257287    3.6327642    284904.75 
  189000    2.4755063 0.0022040944     3.617788    284904.75 
  190000    2.4836885 0.0021784616    3.6212438    284904.75 
  191000    2.4752795 0.0021798812    3.6213589    284904.75 
  192000    2.4767264 0.0022196291     3.621357    284904.75 
  193000    2.4759145 0.0022328394    3.6213583    284904.75 
  194000    2.4761295 0.0022025776    3.6213564    284904.75 
  195000    2.4741475 0.0022270835    3.6213556    284904.75 
  196000    2.4843258 0.0022506209     3.621356    284904.75 
  197000    2.4730432 0.0022070796    3.6213524    284904.75 
  198000    2.4787857 0.0022052332    3.6213487    284904.75 
  199000    2.4771812 0.0022210804    3.6221134    284904.75 
  200000    2.4767034 0.0022490224    3.6221133    284904.75 
Loop time of 6.20589 on 1 procs for 200000 steps with 256 atoms

Pair  time (%) = 1.12287 (18.0936)
Neigh time (%) = 3.6863 (59.4)
Comm  time (%) = 0.312508 (5.03567)
Outpt time (%) = 0.00802279 (0.129277)
Other time (%) = 1.07619 (17.3414)

Nlocal:    256 ave 256 max 256 min
Histogram: 1 0 0 0 0 0 0 0 0 0
Nghost:    67 ave 67 max 67 min
Histogram: 1 0 0 0 0 0 0 0 0 0
Neighs:    41 ave 41 max 41 min
Histogram: 1 0 0 0 0 0 0 0 0 0

Total # of neighbors = 41
Ave neighs/atom = 0.160156
Neighbor list builds = 18508
Dangerous builds = 10659
#	run             	1000
	unfix 			1
	unfix 			2

#------------ NVE -----------------------------------------------------------------------------

	fix 			1 all nve
	timestep		${dt}
	timestep		0.0020000000000000000416
	thermo_style  		custom step temp press etotal vol
	thermo			1000
	run             	100000
Memory usage per processor = 2.23315 Mbytes
Step Temp Press TotEng Volume 
  200000    2.4767034 0.0022490224    3.6221133    284904.75 
  201000    2.4778097 0.0021945098    3.6221132    284904.75 
  202000    2.4810573 0.0021923166    3.6221119    284904.75 
  203000    2.4790438 0.0022218883     3.622097    284904.75 
  204000    2.4769121 0.0021537476     3.622113    284904.75 
  205000    2.4746025 0.0022019068    3.6221139    284904.75 
  206000    2.4747065 0.0022074483     3.622112    284904.75 
  207000    2.4752854 0.0022124779    3.6221127    284904.75 
  208000    2.4725594 0.0021784179    3.6221127    284904.75 
  209000    2.4795793 0.0021973891     3.622111    284904.75 
  210000    2.4766588 0.0022203046    3.6221142    284904.75 
  211000    2.4561883 0.0023604011    3.6221335    284904.75 
  212000     2.479074 0.0021993408      3.62211    284904.75 
  213000    2.4799089 0.0021743805    3.6221084    284904.75 
  214000    2.4675921 0.0021568709    3.6221097    284904.75 
  215000    2.4669391 0.0022655179    3.6221161    284904.75 
  216000    2.4695053  0.002189115    3.6221098    284904.75 
  217000    2.4679376 0.0022813248    3.6221133    284904.75 
  218000    2.4726528 0.0021619844    3.6221114    284904.75 
  219000    2.4727979 0.0021652515    3.6221096    284904.75 
  220000    2.4693973 0.0021879628    3.6221102    284904.75 
  221000    2.4652568 0.0021987707    3.6221109    284904.75 
  222000    2.4669482 0.0022643278    3.6221132    284904.75 
  223000    2.4632756 0.0021815855    3.6221114    284904.75 
  224000    2.4645248 0.0021824149    3.6221111    284904.75 
  225000    2.4609154 0.0021500161    3.6221136    284904.75 
  226000    2.4570318 0.0021779543    3.6221124    284904.75 
  227000    2.4569116 0.0021661083     3.622114    284904.75 
  228000    2.4595769 0.0021937088    3.6221128    284904.75 
  229000     2.463132 0.0021881791     3.622117    284904.75 
  230000    2.4534038 0.0021670585    3.6221179    284904.75 
  231000    2.4530203 0.0021516979    3.6221176    284904.75 
  232000    2.4518733  0.002154935    3.6221156    284904.75 
  233000    2.4524907 0.0021841808    3.6221151    284904.75 
  234000    2.4511259 0.0021862162    3.6221145    284904.75 
  235000    2.4565358 0.0022597041    3.6221089    284904.75 
  236000    2.4529395 0.0021882997     3.622111    284904.75 
  237000    2.4436106 0.0021889808    3.6221136    284904.75 
  238000    2.4528928 0.0021639406    3.6221174    284904.75 
  239000    2.4469939 0.0022411453    3.6221226    284904.75 
  240000    2.4490012 0.0021714711    3.6221194    284904.75 
  241000    2.4548964  0.002217012    3.6221173    284904.75 
  242000    2.4540204 0.0022095965    3.6221205    284904.75 
  243000    2.4485181 0.0021693611     3.622119    284904.75 
  244000    2.4495694  0.002236807    3.6221179    284904.75 
  245000    2.4411454 0.0021713695    3.6221206    284904.75 
  246000    2.4457549  0.002177396    3.6221203    284904.75 
  247000    2.4471536 0.0021780112    3.6221201    284904.75 
  248000    2.4452254 0.0021624282    3.6221221    284904.75 
  249000    2.4448718 0.0021526823    3.6221217    284904.75 
  250000    2.4536902 0.0022146605    3.6221183    284904.75 
  251000    2.4425231 0.0021542992    3.6221272    284904.75 
  252000    2.4447951 0.0021582929    3.6221295    284904.75 
  253000    2.4445448 0.0021778621    3.6221329    284904.75 
  254000    2.4482434 0.0021913557    3.6221288    284904.75 
  255000    2.4459224 0.0021837994    3.6221289    284904.75 
  256000    2.4507548 0.0022044162    3.6221164    284904.75 
  257000    2.4354882 0.0022343452    3.6221346    284904.75 
  258000    2.4415741 0.0021798717    3.6221241    284904.75 
  259000    2.4404035 0.0021985629    3.6221243    284904.75 
  260000    2.4371406 0.0021530332    3.6221221    284904.75 
  261000    2.4325594 0.0021882333      3.62212    284904.75 
  262000    2.4312608 0.0021602402    3.6221189    284904.75 
  263000    2.4327271 0.0021841366    3.6221141    284904.75 
  264000    2.4317804  0.002174532    3.6221167    284904.75 
  265000    2.4364454 0.0021873124    3.6221182    284904.75 
  266000    2.4311841 0.0021631174    3.6221175    284904.75 
  267000    2.4295089 0.0021775918    3.6221174    284904.75 
  268000     2.432971 0.0021636404    3.6221154    284904.75 
  269000    2.4347033 0.0021972812    3.6221166    284904.75 
  270000    2.4307183 0.0021759946    3.6221169    284904.75 
  271000    2.4344921 0.0021985455     3.622117    284904.75 
  272000    2.4331453  0.002170774    3.6221157    284904.75 
  273000    2.4314448 0.0021923733    3.6221157    284904.75 
  274000    2.4318734 0.0021723276    3.6221151    284904.75 
  275000    2.4312457 0.0021617987    3.6221145    284904.75 
  276000     2.430056  0.002167361    3.6221127    284904.75 
  277000    2.4308396 0.0021612466    3.6221124    284904.75 
  278000    2.4304138 0.0021690906    3.6221137    284904.75 
  279000    2.4286275 0.0021812963    3.6221168    284904.75 
  280000    2.4283668 0.0021639174    3.6221185    284904.75 
  281000    2.4279803 0.0021633821    3.6221232    284904.75 
  282000    2.4288865 0.0021657867    3.6221218    284904.75 
  283000    2.4322071 0.0021680441     3.622121    284904.75 
  284000    2.4248273 0.0022117639    3.6220997    284904.75 
  285000    2.4286362 0.0021631369    3.6221232    284904.75 
  286000    2.4259402  0.002166298     3.622123    284904.75 
  287000    2.4281051 0.0021731476    3.6221244    284904.75 
  288000    2.4297315  0.002170808    3.6221249    284904.75 
  289000    2.4286708 0.0021622997    3.6221241    284904.75 
  290000      2.43287 0.0021756914     3.622121    284904.75 
  291000    2.4268326 0.0021652489    3.6221211    284904.75 
  292000    2.4261537 0.0021665351    3.6221215    284904.75 
  293000    2.4282805 0.0021649346    3.6221212    284904.75 
  294000    2.4288906 0.0021763619    3.6221235    284904.75 
  295000    2.4270943 0.0021822363     3.622123    284904.75 
  296000    2.4289723 0.0021739355    3.6221222    284904.75 
  297000    2.4268539 0.0021661617     3.622123    284904.75 
  298000    2.4271425 0.0021651345     3.622124    284904.75 
  299000    2.4257622 0.0021664828    3.6221229    284904.75 
  300000    2.4370932 0.0021610246    3.6221248    284904.75 
Loop time of 2.30368 on 1 procs for 100000 steps with 256 atoms

Pair  time (%) = 0.192399 (8.35182)
Neigh time (%) = 1.52551 (66.2206)
Comm  time (%) = 0.138598 (6.01639)
Outpt time (%) = 0.00412154 (0.178911)
Other time (%) = 0.44305 (19.2323)

Nlocal:    256 ave 256 max 256 min
Histogram: 1 0 0 0 0 0 0 0 0 0
Nghost:    76 ave 76 max 76 min
Histogram: 1 0 0 0 0 0 0 0 0 0
Neighs:    12 ave 12 max 12 min
Histogram: 1 0 0 0 0 0 0 0 0 0

Total # of neighbors = 12
Ave neighs/atom = 0.046875
Neighbor list builds = 7910
Dangerous builds = 0
#	run             	10000
	unfix 			1

#------------ kappa -------------------------------------------------------------------------
log 	log_kappa_${iseed}.lammps
log 	log_kappa_7.lammps
