	reset_timestep  	0
	fix 			1 all nve
	compute   		myKE all ke/atom
	compute   		myPE all pe/atom
	compute   		myStress all stress/atom virial
	compute   		flux all heat/flux myKE myPE myStress
	variable  		Jx equal c_flux[1]/vol
	variable  		Jy equal c_flux[2]/vol
	variable  		Jz equal c_flux[3]/vol
	fix       		JJ all ave/correlate $s $p $d c_flux[1] c_flux[2] c_flux[3] type auto file J0Jt_${iseed}.dat ave running
	fix       		JJ all ave/correlate 5 $p $d c_flux[1] c_flux[2] c_flux[3] type auto file J0Jt_${iseed}.dat ave running
	fix       		JJ all ave/correlate 5 200000 $d c_flux[1] c_flux[2] c_flux[3] type auto file J0Jt_${iseed}.dat ave running
	fix       		JJ all ave/correlate 5 200000 1000000 c_flux[1] c_flux[2] c_flux[3] type auto file J0Jt_${iseed}.dat ave running
	fix       		JJ all ave/correlate 5 200000 1000000 c_flux[1] c_flux[2] c_flux[3] type auto file J0Jt_5.dat ave running
#	fix       		JJ all ave/correlate $s $p $d c_flux[1] c_flux[2] c_flux[3] type auto ave running
#	dump			JJ all custom 1000000 J0Jt.dat f_JJ[3] f_JJ[4] f_JJ[5]
	compute 		myDis all msd
	thermo_style 		custom step temp press vol c_myDis[4] v_Jx v_Jy v_Jz
	thermo			1000
	timestep		${dt}
	timestep		0.0020000000000000000416
	run			2000000
Memory usage per processor = 3.5433 Mbytes
Step Temp Press Volume myDis[4] Jx Jy Jz 
       0    2.6475233  0.002407969    279726.26            0 0.00032723285 -0.00048541486 -0.0002775368 
    1000    2.6366327 0.0024415032    279726.26    31.533953 0.00035711952 -0.00056934225 -0.00010322465 
    2000    2.6396913 0.0024017574    279726.26    125.12746 0.00034053896 -0.00046971764 -0.00033647645 
    3000    2.6385851 0.0024013233    279726.26    281.18905 0.00030868379 -0.00044600349 -0.00037370428 
    4000    2.6404427 0.0024060009    279726.26    497.65722 0.00023635683 -0.00042489092 -0.0003124916 
    5000    2.6393472 0.0024008865    279726.26    774.90343 0.00018664371 -0.00044257764 -0.00032436654 
    6000    2.6408898 0.0023973299    279726.26    1109.4711 0.00022125492 -0.00036415774 -0.00041336454 
    7000    2.6403568  0.002399698    279726.26    1497.2631 0.00025586881 -0.00033402816 -0.0003344707 
    8000     2.636697 0.0024419516    279726.26    1934.9283 0.00013312655 -0.00037642625 -0.00050903889 
    9000     2.641399 0.0023995663    279726.26    2427.6657 0.00017875013 -0.00040178909 -0.00036548272 
   10000    2.6407006 0.0024032708    279726.26    2978.8217 0.00020055918 -0.00040469888 -0.00039422787 
   11000    2.6400848 0.0023994666    279726.26    3587.6108 0.00014779924 -0.00030399479 -0.00028562964 
   12000    2.6376835  0.002403673    279726.26    4249.5154 0.00012961736 -0.00029940951 -0.0002527757 
   13000    2.6386468 0.0024017902    279726.26    4968.6803 0.00010271559 -0.00031379072 -0.00014912698 
   14000    2.6390982 0.0024007236    279726.26     5743.075 0.00015893423 -0.00035651198 -0.00020879868 
   15000    2.6398071 0.0023994483    279726.26    6570.6275  0.000226485 -0.00035377363 -0.00017288814 
   16000    2.6398809 0.0023993496    279726.26    7445.9325 0.00021655276 -0.00035385845 -0.00017575942 
   17000    2.6403759 0.0024040852    279726.26    8367.8572 0.00023093343 -0.00044072692 -0.00013486676 
   18000    2.6383044 0.0024021708    279726.26    9340.4816 0.00027081112 -0.00043912585 -0.00013949154 
   19000    2.6406103 0.0024058116    279726.26    10369.783 0.00025074482 -0.00049959066 -5.3266691e-05 
   20000    2.6375028 0.0024038652    279726.26     11443.73 0.00024074618 -0.00049790424 -0.00012426462 
   21000     2.640408 0.0023999929    279726.26    12565.482 0.00030150432 -0.00043373447 -0.00026971079 
   22000    2.6426934 0.0023997182    279726.26    13726.957 0.00023543859 -0.00048804753 -0.00022312478 
   23000    2.6411596 0.0023968291    279726.26    14939.027 0.0002769329 -0.00051431703 -0.00022613887 
   24000    2.6411306 0.0023998735    279726.26    16188.186 0.00017304092 -0.00053850799 -4.6930231e-05 
   25000    2.6410621 0.0023988608    279726.26    17481.365 0.00021623631 -0.00056925545 -3.8649973e-05 
   26000    2.6382002 0.0024026466    279726.26    18835.615 0.00019076089 -0.00055297849 -3.42313e-05 
   27000    2.6402148 0.0023988398    279726.26    20241.303 0.00033091766 -0.00056139494 -9.8430514e-05 
   28000     2.637812 0.0024028664    279726.26    21670.418 0.00025448328 -0.00062003858 -0.00018853005 
   29000     2.642181 0.0024086738    279726.26    23154.266 0.00031674482 -0.00059934031 -0.00021226425 
   30000    2.6404986 0.0024094821    279726.26     24681.42 0.00025515286 -0.00059804747 -0.00024967977 
   31000    2.6413277 0.0024119346    279726.26    26250.878 0.0002331955 -0.00061643406 -0.00033630593 
   32000    2.6397045 0.0024004463    279726.26    27862.136 0.00021315322 -0.00057757418 -0.00027511425 
   33000    2.6375727 0.0024364477    279726.26    29524.905 0.00031168869 -0.0004990647 -0.00031777957 
   34000    2.6400124   0.00240105    279726.26    31208.376 0.00024600476 -0.00061390558 -0.00033955435 
   35000    2.6428263 0.0024025296    279726.26    32947.385 0.0002357639 -0.00062856068 -0.00032560056 
   36000    2.6421245 0.0023957524    279726.26    34705.824 0.00044747491 -0.00049259004 -0.00036507509 
   37000    2.6379721 0.0024028472    279726.26    36481.245 0.00050516238 -0.00050084559 -0.00033064592 
   38000    2.6393147 0.0024007944    279726.26    38319.118 0.00050405809 -0.00050461305 -0.00031582576 
   39000    2.6386458 0.0024018168    279726.26    40217.994 0.00050696364 -0.00050126074 -0.00031292907 
   40000    2.6387953 0.0024016246    279726.26     42174.25 0.00041267128 -0.00055252932 -0.00019218807 
   41000    2.6387675 0.0024013324    279726.26    44163.255 0.00039893833 -0.00057138218 -0.00020436007 
   42000    2.6415858 0.0023978435    279726.26    46186.536 0.00027844747 -0.00063597696 -0.00019432723 
   43000    2.6427819 0.0023965483    279726.26    48253.052 0.00027872017 -0.0005689272 -0.00014179709 
   44000    2.6426115 0.0024001762    279726.26    50291.171 0.00029922328 -0.00053962356 -0.00020946824 
   45000    2.6378757 0.0024355953    279726.26    52356.839 0.00030976266 -0.00059790126 -0.00020229448 
   46000    2.6396766 0.0024002936    279726.26    54458.534 0.00030863798 -0.00060870873 -0.00018082358 
   47000    2.6413936 0.0024007385    279726.26    56606.888 0.00026932397 -0.00054613213 -0.00026821414 
   48000    2.6379596 0.0024032472    279726.26    58808.268 0.00025712165 -0.00050823121 -0.00029340234 
   49000    2.6375346 0.0024039514    279726.26    61054.378 0.00021660993 -0.00045403755 -0.00022530686 
   50000    2.6383364 0.0024021182    279726.26    63345.946 0.00023045047 -0.00042769273 -0.00021367418 
   51000    2.6396538 0.0024376635    279726.26    65654.071 0.00025371291 -0.00041962029 -0.00013034886 
   52000    2.6422022 0.0024008521    279726.26    67961.246 0.0003433341 -0.00043074428 -0.00013536725 
   53000     2.644914 0.0023956198    279726.26    70318.282 0.00029774701 -0.00042810191 -0.00014023684 
   54000    2.6402016  0.002400726    279726.26    72721.657 0.00017895079 -0.00039542613 -0.00014693418 
   55000     2.640603 0.0023988369    279726.26    75105.359 0.00012174035 -0.00036197289 -0.00011067309 
   56000    2.6400406 0.0023996253    279726.26    77491.488 0.00016429694 -0.00028219231 -0.00018113856 
   57000    2.6437691 0.0024199325    279726.26    79876.482 -7.2032236e-06 -0.00042377958 -0.00019318339 
   58000    2.6400401 0.0023993437    279726.26    82283.982 2.3972467e-05 -0.0003561995 -0.00015239107 
   59000    2.6384344 0.0024017028    279726.26    84743.261 3.120329e-06 -0.00042306937 -0.00015215939 
   60000     2.638348 0.0024022614    279726.26    87251.929 -2.902936e-05 -0.00046926379 -0.0001235723 
   61000     2.642821 0.0024008007    279726.26    89686.495 2.8321843e-05 -0.00039599563 -4.6053992e-05 
   62000    2.6384229 0.0024019771    279726.26    92132.431 -2.6499466e-05 -0.0002474417 -0.00015153782 
   63000    2.6379784 0.0024027196    279726.26    94637.627 6.3448917e-06 -0.00021851493 -0.00011432111 
   64000    2.6393105 0.0024382293    279726.26    97172.363 -6.3888571e-06 -0.00022490914 -0.0001121799 
   65000    2.6385884 0.0024018643    279726.26    99707.668 -7.7947703e-05 -0.00024499227 -0.00010793697 
   66000    2.6388081 0.0024012302    279726.26    102298.64 -9.3622653e-05 -0.0002357117 -0.00010563526 
   67000    2.6403842 0.0024013401    279726.26    104946.63 -3.3329738e-05 -0.00020505568 -5.6693531e-05 
   68000    2.6379709 0.0024030854    279726.26    107642.99 -6.241517e-05 -0.00021338604 -4.2208698e-05 
   69000    2.6382493 0.0024022493    279726.26    110394.69 -5.8025849e-06 -0.00021922379 -5.7269026e-05 
   70000    2.6390089 0.0024006535    279726.26    113171.16 6.9592414e-05 -0.00020423949 -0.00010096555 
   71000    2.6410204 0.0024006542    279726.26    115983.72 7.5224752e-06 -0.0002318084 -0.00010689971 
   72000     2.644008  0.002400681    279726.26     118851.1 -1.4949233e-06 -0.00030612138 -0.00014783061 
   73000    2.6387973 0.0024009791    279726.26    121775.98 -3.0796867e-06 -0.00029065504 -0.00014326222 
   74000    2.6410283 0.0023978502    279726.26    124711.98 -1.9883112e-05 -0.00029084713 -8.9641522e-05 
   75000    2.6376381 0.0024036468    279726.26    127674.59 -3.4953788e-05 -0.00030793221 -0.00011066787 
   76000    2.6390233 0.0024019679    279726.26    130698.18 -1.7508923e-05 -0.00029500311 -9.5919001e-05 
   77000    2.6415693 0.0024098947    279726.26    133784.14 -1.0109235e-06 -0.00027732428 -8.0571769e-05 
   78000      2.64225 0.0024433827    279726.26    136876.34 -3.4020907e-05 -0.00041616261 -0.00012007248 
   79000    2.6454975 0.0024027634    279726.26    139987.09 1.8391373e-05 -0.00046365829 -4.5595644e-05 
   80000    2.6401514 0.0024052707    279726.26    143142.33 7.1863322e-06 -0.00048482947 -6.3556167e-05 
   81000    2.6394988   0.00240027    279726.26    146360.52 -2.8013904e-06 -0.00048010772 -6.6708992e-05 
   82000    2.6380727 0.0024026717    279726.26     149639.3 2.3299109e-05 -0.00051228169 -5.1559898e-05 
   83000    2.6382249 0.0024025694    279726.26    152962.18 -4.1007769e-05 -0.0004989657 -0.00015932385 
   84000    2.6430917 0.0024023911    279726.26    156318.11 -2.2886624e-05 -0.00052020733 -0.00018475066 
   85000    2.6397244 0.0024599536    279726.26    159706.86 -7.4127224e-05 -0.00022208571 -3.393214e-05 
   86000    2.6442081 0.0024310674    279726.26    163128.82 0.00011607678 -0.0006426027 -0.0001405405 
   87000    2.6381714  0.002402613    279726.26    166552.41 6.3270244e-05 -0.00055110781 -0.00015412866 
   88000     2.638417 0.0024020314    279726.26    169998.28 0.00011946798 -0.0005270681 -6.9783309e-05 
   89000    2.6396402 0.0024357271    279726.26    173395.83 0.00012919096 -0.00045373882 -0.00015550113 
   90000    2.6385775 0.0024018254    279726.26    176864.15 0.00011789451 -0.00052822874 -9.785771e-05 
   91000    2.6432939 0.0023997728    279726.26    180376.21 0.00010421617 -0.00049772555 -0.00011326665 
   92000    2.6420925 0.0024192932    279726.26    183887.02 0.00013063741 -0.00038441616 -3.7312168e-05 
   93000    2.6398784 0.0024010502    279726.26    187361.91 0.00019119437 -0.00032024196 -8.3227116e-05 
   94000    2.6441107 0.0024172768    279726.26    190856.08 0.00016675628 -0.0004183487 -3.97171e-05 
   95000    2.6430694 0.0023993866    279726.26    194382.76 9.5303981e-05 -0.00041049292 -3.1209082e-05 
   96000     2.641068 0.0023979778    279726.26    197922.89 8.2772622e-05 -0.00044867202 1.3807025e-05 
   97000    2.6428661 0.0023990689    279726.26    201476.61 0.00011317111 -0.00042533813 3.3119806e-05 
   98000    2.6450475 0.0024000937    279726.26    205029.81 0.00024728696 -0.00040375606 0.00012767981 
   99000    2.6404914 0.0024291931    279726.26    208597.81 0.00027009083 -0.00036138858 0.00012937891 
  100000    2.6414802 0.0024052986    279726.26    212158.34 0.00015519013 -0.00025391785 0.0002588741 
  101000     2.643087 0.0024116927    279726.26    215746.91 0.00015704704 -0.00027462965 0.00025830002 
  102000    2.6471974 0.0023983426    279726.26     219369.6 0.00013053522 -0.00020339196 0.00030536812 
  103000    2.6413674 0.0023988601    279726.26     222944.3 0.00028122196 -0.00020739472 0.00028492848 
  104000    2.6395007 0.0024820065    279726.26     226442.8 0.00055258757 -3.1925808e-05 0.00043920032 
  105000    2.6401805 0.0023993155    279726.26    229882.18 0.00033850215 -8.2280683e-05 0.00041428141 
  106000    2.6417361 0.0023972634    279726.26    233347.82 0.0003294991 -8.9148262e-05 0.00039367735 
  107000     2.642153 0.0023973804    279726.26    236875.46 0.00043712334 4.5320994e-05 0.00042129687 
  108000    2.6415359 0.0023972625    279726.26    240434.98 0.00052012152 -4.8516201e-05 0.00055802029 
  109000    2.6415854  0.002425589    279726.26    243974.86 0.00061274922 -7.0603226e-05 0.00048170841 
  110000      2.64292 0.0024037047    279726.26    247517.05 0.00059817305 -9.9635064e-05 0.0005750378 
  111000    2.6421714 0.0024109662    279726.26    251101.77 0.00062156446 -0.00011013812 0.00055984171 
  112000    2.6425696 0.0024119668    279726.26    254691.46 0.0006038858 -0.00015535437 0.0005745939 
  113000    2.6338089 0.0024977218    279726.26    258320.57 0.00072111495 -0.00024953694 0.00093665529 
  114000    2.6436399 0.0024009872    279726.26    261932.37 0.0006533841 -0.00012665096 0.00059561474 
  115000     2.641116 0.0024056793    279726.26    265582.58 0.00058196234 -0.0001762388 0.00062411961 
  116000    2.6437032  0.002403054    279726.26    269260.81 0.00063535632 -0.00013566123 0.00057320947 
  117000    2.6397171 0.0023992589    279726.26    272970.74 0.00058483278 -0.00027533896 0.00065133052 
  118000    2.6384255  0.002402515    279726.26    276686.98 0.00062408702 -0.00025880453 0.00063816077 
  119000    2.6395023 0.0024012035    279726.26    280419.37 0.00059677199 -0.00024751945 0.00061100492 
  120000    2.6204634 0.0025374473    279726.26     284205.6 0.00051824546 -0.00032752613 0.00033067053 
  121000    2.6386106 0.0024011701    279726.26    287964.77 0.00058910097 -0.00028407921 0.00049961262 
  122000    2.6405986 0.0023994437    279726.26    291668.08 0.00066378475 -0.00033372494 0.00054851687 
  123000    2.6392812 0.0024004842    279726.26    295425.81 0.00065461431 -0.00037448915 0.00055581331 
  124000    2.6424437 0.0024009132    279726.26    299204.72 0.00063067563 -0.00028409149 0.00055771839 
  125000    2.6401281  0.002398935    279726.26    303027.76 0.00070455265 -0.00022137051 0.00049801773 
  126000    2.6361523 0.0024491593    279726.26    306890.12 0.00063276012 -3.9783305e-05 0.00045471437 
  127000    2.6391492 0.0024005695    279726.26    310790.96 0.00064573349 -3.5227352e-05 0.00049930805 
  128000    2.6405389 0.0024035355    279726.26    314734.61 0.00065041663 -4.6409605e-05 0.00051254889 
  129000    2.6403008 0.0023981283    279726.26    318720.97 0.00066232543 -7.5025933e-05 0.00052800792 
  130000    2.6413951 0.0023970082    279726.26    322705.73 0.00068504312 -0.00020099908 0.00045575489 
  131000    2.6385517 0.0024018616    279726.26    326714.48 0.00071993692 -0.0002139048 0.00043628793 
  132000    2.6300483 0.0024800591    279726.26    330752.12 0.00066934984 -0.00014689286 0.00043253554 
  133000    2.6393101 0.0024003028    279726.26    334770.32 0.00072492086 -0.00018588237 0.00051769131 
  134000    2.6425865 0.0024069758    279726.26     338812.2 0.0007605965 -0.00011350124 0.00051985469 
  135000    2.6396966 0.0024001115    279726.26    342864.79 0.00074004721 -0.00014031046 0.00045993308 
  136000    2.6383839 0.0024020261    279726.26    346979.16 0.00072984913 -0.00012587328 0.00045992965 
  137000    2.6428332 0.0023969444    279726.26    351152.42 0.00069834245 -7.7332504e-05 0.00047092416 
  138000    2.6383509   0.00240231    279726.26    355279.86 0.00067586207 -8.3779661e-05 0.00042405874 
  139000    2.6402598 0.0024003316    279726.26    359388.06 0.00064982025 -8.6655494e-05 0.00046024349 
  140000    2.6414304 0.0024065886    279726.26    363508.72 0.00064572375 -0.00015875746 0.00049811472 
  141000    2.6395055 0.0023997725    279726.26    367557.35 0.00072460722 -0.00020390087 0.0005035304 
  142000    2.6399919 0.0023995087    279726.26    371591.73 0.00083029188 -0.00022871301 0.00048186357 
  143000    2.6351633 0.0024738374    279726.26    375660.91 0.00082105186 -0.00028392918 0.00031477113 
  144000    2.6408833  0.002397562    279726.26    379709.95 0.0007806336 -0.00024672726 0.00059376773 
  145000    2.6428197 0.0024043056    279726.26    383745.19 0.00073154384 -0.00019664522 0.00063568305 
  146000     2.640614 0.0023985851    279726.26    387817.59 0.00073571679 -0.00019613142 0.00062430088 
  147000    2.6417918 0.0023988487    279726.26    391756.42 0.00067589426 -0.00014511356 0.00057168855 
  148000    2.6377394 0.0024031978    279726.26    395718.57 0.00071828686 -0.00013590071 0.00057885329 
  149000    2.6408796 0.0023990684    279726.26    399665.03 0.00071847768 -0.0001238652 0.00055488881 
  150000     2.637567 0.0024037271    279726.26     403594.4 0.00068796138 -0.00011404584 0.00068488402 
  151000    2.6422758 0.0024180574    279726.26    407548.83 0.00072056492 -0.00011143394 0.00072455405 
  152000    2.6388181  0.002401926    279726.26    411567.41 0.00065360589 -0.00013352358 0.00074119765 
  153000    2.6403904 0.0023993786    279726.26    415647.89 0.00066528542 -0.00012712669 0.00073345101 
  154000    2.6396779 0.0024365107    279726.26    419757.17 0.00067123621 -0.00017246033 0.00078767139 
  155000    2.6388489 0.0024016203    279726.26    423835.14 0.00060332545 -0.00013922204 0.00078381325 
  156000    2.6416314 0.0023987371    279726.26    427931.59 0.00061531294 -0.00020143355 0.00083564402 
  157000    2.6379996 0.0024027584    279726.26    432067.54 0.00058528673 -0.00023927369 0.00077039498 
  158000    2.6413826 0.0024022678    279726.26    436263.99 0.00057799442 -0.00021233854 0.00075840304 
  159000    2.6395346 0.0024000361    279726.26    440491.65 0.00051323698 -0.00029877988 0.00070025516 
  160000    2.6421153 0.0024048355    279726.26     444700.8 0.00053030321 -0.00042316007 0.00073685956 
  161000     2.639658 0.0024137082    279726.26    448893.27 0.0004759134 -0.00037971175 0.00069487092 
  162000    2.6389857 0.0024005672    279726.26    453087.13 0.00046293843 -0.00041163398 0.0006677955 
  163000    2.6402534 0.0024009351    279726.26    457291.16 0.0004893723 -0.00041203488 0.00074473275 
  164000    2.6412087  0.002417004    279726.26    461501.81 0.00050380203 -0.00045907799 0.00082252732 
  165000    2.6412966 0.0024057351    279726.26    465704.87 0.00053935127 -0.00048022318 0.0006623339 
  166000    2.6401866  0.002418983    279726.26    469951.84 0.00044571812 -0.00049269245 0.00069359457 
  167000    2.6402528 0.0024003808    279726.26    474162.05 0.00048315266 -0.00030307455 0.00065259905 
  168000    2.6414307  0.002396936    279726.26    478297.42 0.00055513078 -0.00027562236 0.00058708709 
  169000    2.6399481 0.0024007011    279726.26    482402.22 0.00058814663 -0.00022511855 0.00062675672 
  170000     2.640345 0.0024097674    279726.26     486510.3 0.00062514411 -0.00021181995 0.00064153271 
  171000    2.6413122 0.0024002825    279726.26    490580.37 0.00060205982 -0.00019627616 0.00063602221 
  172000    2.6407072 0.0024396562    279726.26    494718.77 0.0005876975 -0.00013002018 0.00065240983 
  173000    2.6416501 0.0023981527    279726.26    498905.76 0.00055900112 -6.0235083e-05 0.00056376936 
  174000    2.6414003 0.0023983417    279726.26    503107.52 0.00057196007 -6.4334225e-05 0.00053669033 
  175000     2.645166 0.0024511469    279726.26    507344.66 0.00052236707 5.0162259e-05 0.00058276686 
  176000    2.6406758 0.0023993024    279726.26    511597.55 0.00048059132 1.5639419e-05 0.00057145671 
  177000    2.6441027 0.0024030694    279726.26    515881.58 0.00046567953 4.0239689e-05 0.00054807318 
  178000    2.6402001 0.0024014088    279726.26    520154.93 0.00048906748 6.7398435e-05 0.0005376565 
  179000    2.6420645 0.0023970835    279726.26    524456.64 0.00053803929 5.273186e-05 0.00057692598 
  180000    2.6397919   0.00241661    279726.26    528720.28 0.00049907813 3.4432279e-05 0.00059542962 
  181000    2.6399066 0.0024003845    279726.26    532980.49 0.00050450092 3.3896783e-05 0.00050642632 
  182000    2.6442825 0.0024000542    279726.26    537295.72 0.00051721474 2.5823597e-05 0.00051022191 
  183000    2.6399268 0.0024032671    279726.26     541624.4 0.00044591669 2.1859281e-05 0.0004450276 
  184000    2.6449615 0.0023970268    279726.26    545965.06 0.00045085207 2.8001182e-05 0.00045219839 
  185000    2.6410796 0.0024147802    279726.26    550337.77 0.00048982396 0.00010258631 0.00029396911 
  186000    2.6402516 0.0023999656    279726.26    554776.86 0.00044158952 6.9531066e-05 0.0003249768 
  187000    2.6405005  0.002401275    279726.26    559271.06 0.00044564152 4.3212525e-05 0.00031737103 
  188000    2.6412041 0.0024025647    279726.26     563804.8 0.00042745905 9.8695814e-05 0.00033475728 
  189000    2.6429197 0.0024109168    279726.26     568341.8 0.00042168533 9.2005534e-05 0.00030293015 
  190000    2.6467977  0.002395164    279726.26    572908.78 0.00042953994 0.00012656191 0.00032062486 
  191000    2.6411995 0.0024081353    279726.26    577482.56 0.00036814416 0.0001010405 0.00042003803 
  192000    2.6416043 0.0024002206    279726.26     582079.3 0.00033666047 0.00014147391 0.00038159916 
  193000    2.6481336 0.0023932675    279726.26    586586.33 0.00036422467 7.4542148e-05 0.00034173447 
  194000    2.6440105 0.0023981017    279726.26    591123.17 0.00031021545 3.1950851e-05 0.00036973929 
  195000     2.644522  0.002403292    279726.26     595668.4 0.00021517423 7.7323636e-05 0.00034730587 
  196000    2.6448399 0.0024003517    279726.26    600124.32 0.00017783471 0.00023888245 0.00047138694 
  197000    2.6415267 0.0024025693    279726.26    604519.82 0.00018050145 0.00017269173 0.00025142854 
  198000    2.6438607  0.002399677    279726.26    608954.48 0.00019122749 0.00015236153 0.00026647184 
  199000    2.6450898 0.0024011937    279726.26    613420.47 0.00023886468 0.00011817207 0.00018497463 
  200000    2.6422199 0.0023986535    279726.26    617903.38 0.00022152739 0.00012706804 0.00016580647 
  201000    2.6415224  0.002432212    279726.26    622405.58  0.000283564 1.1929597e-05 4.8711844e-05 
  202000    2.6401539 0.0024020462    279726.26    626943.21 0.00025664986 5.4463174e-05 0.00010830523 
  203000    2.6410888 0.0024014765    279726.26     631536.2 0.00022925151 6.3991761e-05 4.8197412e-05 
  204000    2.6386998 0.0024438303    279726.26    636139.58 -5.8276424e-05 3.1148003e-05 -4.106499e-05 
  205000    2.6415248 0.0023992104    279726.26    640897.54 0.00018392542 5.9958833e-05 0.00011071671 
  206000    2.6467451  0.002403875    279726.26    645663.18 0.00021798227 7.6224986e-05 0.00013742584 
  207000    2.6410414 0.0024009164    279726.26    650463.02 0.00016531732 0.00012365567 5.6476577e-05 
  208000    2.6451129 0.0024104853    279726.26    655308.61 0.00015452057 0.0001361549 3.3275602e-05 
  209000    2.6440403 0.0023992014    279726.26    659904.05 4.722043e-05 0.00022265651 0.00015773565 
  210000    2.6414776 0.0024012854    279726.26    664483.95 5.0887145e-05 0.0002980092 9.640536e-05 
  211000    2.6431356 0.0023986308    279726.26    669105.12 6.9072419e-05 0.0003538968 9.2040116e-05 
  212000     2.640915 0.0024033814    279726.26    673716.91 -5.845531e-06  0.000367576 0.00014078718 
  213000    2.6416442 0.0024245731    279726.26    678365.86 -1.5774634e-05 0.00032444628 0.00031123619 
  214000     2.640631 0.0024052498    279726.26    683100.66 -6.4603787e-05 0.00028773731 0.00019394312 
  215000    2.6407005 0.0024055652    279726.26    687897.04 -4.0150118e-05 0.00029632249 0.00022960479 
  216000    2.6425812 0.0024036811    279726.26    692759.57 -1.6499558e-05 0.00028307326 0.00021310447 
  217000    2.6417519 0.0024061075    279726.26    697643.28 -3.7670289e-05 0.00023417082 0.0002360026 
  218000    2.6415575 0.0024063105    279726.26    702546.66 -8.0459402e-05 0.00028608694 0.00018173773 
  219000    2.6400523  0.002409879    279726.26    707466.92 -0.00011317063 0.00023221779 0.00012050191 
  220000    2.6404706 0.0024097597    279726.26    712350.63 -3.1338919e-05 0.00028716309 0.00020718709 
  221000    2.6416248 0.0024268585    279726.26    717243.81 -3.0843675e-05 0.00032616916 0.00022770009 
  222000    2.6414002 0.0024081687    279726.26    722152.25 -9.5800334e-05 0.00038353171 0.0002612248 
  223000    2.6419854 0.0023977376    279726.26    727069.74 -0.00013001838 0.00034117973 0.00025456276 
  224000    2.6413046 0.0023979782    279726.26    731951.77 -5.8372047e-05 0.00051741561 0.00024398004 
  225000    2.6413219 0.0023975878    279726.26    736751.79 -6.6284544e-05 0.00050571567 0.00024269462 
  226000     2.638074 0.0024027305    279726.26    741543.58 -6.3979765e-05 0.00051218716 0.00025496375 
  227000    2.6418104 0.0024009106    279726.26     746393.1 -6.3952999e-05 0.00048239778 0.00025373055 
  228000    2.6462302 0.0024181516    279726.26     751272.8 9.4767338e-06 0.00035255995 0.00023042764 
  229000    2.6385142 0.0024019636    279726.26    756130.23 -0.00022386345 0.00024136395 0.00025472386 
  230000    2.6402818 0.0024420054    279726.26    760987.17 -0.00015106987 3.3091526e-06 0.0003444573 
  231000    2.6420019 0.0024063595    279726.26     765770.3 -6.6755806e-05 8.5594108e-06 0.00024861097 
  232000    2.6408772 0.0023989301    279726.26    770470.16 -2.8523833e-05 5.7806803e-05 0.00017122608 
  233000    2.6446163 0.0024008121    279726.26    775125.39 5.8050064e-05 0.00017129664 0.00010479859 
  234000    2.6389713  0.002400538    279726.26    779716.99 6.8995304e-05 0.00021983411 0.00021752404 
  235000    2.6384684 0.0024020041    279726.26    784206.27 7.9222325e-05 0.00022920904 0.00015714984 
  236000    2.6409813 0.0024301059    279726.26    788745.47 -8.9596493e-05 0.00011403129 0.0001898547 
  237000    2.6423826 0.0024073269    279726.26    793273.89 0.00016308224 0.00029134185 0.00024818455 
  238000    2.6419438 0.0023990252    279726.26    797802.41 0.00017941191 0.00022451261 0.00023477794 
  239000    2.6419924 0.0024021615    279726.26    802364.39 7.2129182e-05 0.00026109494 0.00019743358 
  240000    2.6379579 0.0024026705    279726.26     806975.5 4.8345425e-05 0.00026165406 0.00016792273 
  241000    2.6431044 0.0023943264    279726.26    811588.66 0.00028625495 0.00017806156 0.0001059978 
  242000    2.6424593 0.0024045006    279726.26     816183.2 0.00034221662 0.00024282878 9.1208837e-05 
  243000    2.6388606 0.0024009786    279726.26    820758.08 0.00034281234 0.00021069544 0.00018710764 
  244000    2.6419667 0.0024400103    279726.26    825356.54 0.00022116646 0.00029814027 0.00046157201 
  245000    2.6432003 0.0024124322    279726.26    829993.67 0.00017367564 0.00023615351 0.00014861829 
  246000    2.6381949 0.0024023891    279726.26    834607.69 0.00012952792 0.00014844593 0.00014900242 
  247000    2.6392435 0.0024264906    279726.26    839300.98 5.4971569e-05 6.6901503e-05 0.00026546014 
  248000    2.6392267 0.0024007386    279726.26    844037.28 7.4790547e-05 9.8655903e-05 0.00022624309 
  249000    2.6394379  0.002400581    279726.26    848724.41 8.638283e-05 8.5332995e-05 0.00012288657 
  250000    2.6380339 0.0024026638    279726.26    853414.52 0.00011394493 6.9155875e-05 0.00011076262 
  251000    2.6391204 0.0024017557    279726.26    858137.06 0.00011240721 3.6173769e-05 0.00018139786 
  252000    2.6429352 0.0023972515    279726.26    862904.79 0.00016776009 6.5584073e-05 0.0001500549 
  253000    2.6378856 0.0024031578    279726.26    867703.29 0.00015709803 7.4674078e-05 0.00018695208 
  254000    2.6413268 0.0023978718    279726.26    872557.79 0.00012987715 5.9134623e-05 0.00016933408 
  255000    2.6399256 0.0023997675    279726.26    877446.52 0.00014062963 7.4074103e-05 0.00016515931 
  256000     2.638227 0.0024023688    279726.26    882328.33 0.00017131458 0.00015789557 0.00022633989 
  257000    2.6393399 0.0024005099    279726.26    887238.83 0.00016645737 0.00012684507 0.00020345683 
  258000    2.6400788 0.0024023532    279726.26    892154.39 0.00015894667 0.00017267436 0.00024969509 
  259000    2.6390104 0.0024012608    279726.26    897098.31 0.00016221614 0.00016358987 0.0002351535 
  260000    2.6433842 0.0024018017    279726.26    902076.33 0.00012546807 0.00012776594 0.00023120538 
  261000    2.6401442 0.0023992832    279726.26    907016.86 0.00013301043 4.8868721e-06 0.00027635699 
  262000    2.6400314  0.002401505    279726.26    911956.61 0.00014700624 -3.871876e-05 0.00031891484 
  263000    2.6408289 0.0024043987    279726.26    916928.77 0.00012100812 7.4601206e-05 0.00029603906 
  264000    2.6410436 0.0023989105    279726.26    921929.58 0.00012749655 2.1479066e-05 0.00026444462 
  265000    2.6410563 0.0024011564    279726.26    926947.93 5.0971917e-05 7.7256858e-06 0.00022490029 
  266000    2.6407275 0.0023975653    279726.26    931913.84 3.6499777e-05 1.437056e-05 0.00022100469 
  267000    2.6381633 0.0024020941    279726.26    936899.51 -2.76385e-05 9.308176e-06 0.00019178329 
  268000    2.6397927 0.0023995277    279726.26    941896.19 -5.7761053e-05 0.00014944848 0.00019091468 
  269000    2.6412216 0.0023970613    279726.26    946784.25 -4.2295924e-05 0.00016400772 0.00017520073 
  270000    2.6389802 0.0024004031    279726.26    951683.51 -1.3766286e-05 0.00011953894 9.4139942e-05 
  271000    2.6381112 0.0024024173    279726.26    956545.15 3.3628375e-06 7.1589955e-05 0.00029334495 
  272000     2.639204 0.0024008485    279726.26    961415.68 8.1680867e-05 0.00014888553 0.00021818491 
  273000    2.6379166 0.0024024022    279726.26    966420.47 0.00010598063 0.0001475794 0.00019077345 
  274000    2.6337843 0.0024582514    279726.26    971409.86 -2.3210298e-05 0.00048579809 0.00020936581 
  275000    2.6400209 0.0024025442    279726.26    976358.83 0.00018317941 0.00021657237 0.00011969879 
  276000    2.6426899 0.0024005348    279726.26    981360.53 0.00021513064 0.00026834624 8.3771635e-05 
  277000    2.6406538 0.0024169259    279726.26    986360.65 0.00016386863 0.00033036661 4.9617716e-05 
  278000    2.6394391 0.0024017562    279726.26    991429.23 0.00013125675 0.00030429194 4.3817778e-05 
  279000    2.6409892  0.002398565    279726.26    996523.44 1.1159435e-05 0.0003394151 9.3749509e-05 
  280000    2.6377252 0.0024033267    279726.26    1001632.6 -1.330887e-06 0.00026117743 5.300718e-05 
  281000    2.6399021 0.0023993169    279726.26    1006823.7  4.63279e-05 0.00030017825 -1.3070033e-05 
  282000    2.6388606  0.002401006    279726.26    1012052.3 8.3428713e-05 0.00036051844 -6.7046936e-05 
  283000    2.6430377   0.00243101    279726.26    1017193.8 -1.6845382e-05 0.00039009171 -1.4793449e-05 
  284000    2.6427704 0.0023969328    279726.26    1022343.6 0.00010031994 0.00033372784 -1.0838228e-05 
  285000    2.6388453 0.0024014891    279726.26    1027480.1 5.150138e-05 0.00029338632  -6.4795e-06 
  286000    2.6398344 0.0024122935    279726.26    1032663.4 0.00011713289 0.00013124992 2.9836439e-05 
  287000    2.6435778 0.0023967885    279726.26    1037897.7 0.0001337392 0.00013484966 0.00018030583 
  288000    2.6384846 0.0024021623    279726.26    1043113.7 0.00015293313 6.9978789e-05 0.00025948776 
  289000    2.6399788 0.0023992766    279726.26    1048241.5 0.00015232181 7.3222085e-05 0.00023975256 
  290000    2.6384552 0.0024019905    279726.26    1053366.8 8.0339884e-05 4.5670554e-05 0.00019998894 
  291000    2.6429305 0.0024069536    279726.26    1058385.2 2.6030314e-05 6.277611e-05 0.00018411368 
  292000    2.6386374 0.0024017358    279726.26    1063479.8 3.2340871e-05 6.2868809e-05 0.0002205883 
  293000     2.639552 0.0024007512    279726.26    1068649.5 2.8055689e-05 4.610356e-05 0.00022843901 
  294000    2.6437312 0.0023974449    279726.26    1073892.5 9.5815167e-05  2.01483e-05 0.00029964553 
  295000    2.6405467 0.0024483418    279726.26    1079169.1 9.0361781e-05 5.7062386e-05 0.00033409212 
  296000    2.6410199 0.0023979217    279726.26    1084505.3 9.2578069e-05 -8.2016863e-06 0.00024520273 
  297000    2.6424139 0.0024072565    279726.26    1089847.3 0.00021476451 -4.0118301e-06 6.7042864e-05 
  298000    2.6379687 0.0024026735    279726.26    1095276.4 9.2646739e-05 -2.6817529e-05 -2.3223792e-05 
  299000    2.6368412 0.0024387551    279726.26      1100787 0.00010865605 -1.8987203e-05 -5.7908094e-05 
  300000      2.63935 0.0024019194    279726.26    1106281.1 8.2913186e-05 -0.00017040998 -3.5688972e-05 
  301000    2.6413047 0.0024130914    279726.26    1111856.7 4.0947768e-05 -0.00019251326 -6.1840695e-05 
  302000     2.640571 0.0024034017    279726.26    1117366.2 1.3954478e-05 -0.00016257926 -6.0007517e-05 
  303000    2.6407214 0.0023988196    279726.26    1122876.2 3.200315e-05 -0.00017023903 -5.9526888e-05 
  304000    2.6423718 0.0023989661    279726.26    1128263.9 0.00015861015 -0.00012052502 5.8795017e-05 
  305000    2.6380394  0.002402536    279726.26    1133466.3 7.1295584e-05 -7.3517919e-05 6.6316221e-05 
  306000    2.6453817 0.0024145699    279726.26      1138490 6.8346251e-05 -9.5580964e-05 1.7618092e-05 
  307000    2.6416833 0.0023986217    279726.26    1143530.2 -0.00010173518 -0.00010720474 0.00012838043 
  308000    2.6421168 0.0023962689    279726.26    1148532.1 -0.00013692158 -0.00018988456 -2.0655766e-05 
  309000    2.6432787  0.002397306    279726.26    1153544.1 -4.8208115e-05 -0.00016886335 -6.0200606e-05 
  310000    2.6395792 0.0024591713    279726.26    1158569.3 -1.4532468e-05 7.6368827e-05 3.1487543e-05 
  311000    2.6422388 0.0023969952    279726.26    1163639.2 5.5944048e-05 -0.00010047909 5.1482219e-05 
  312000    2.6410425 0.0024012341    279726.26    1168681.4 -3.9230242e-05 -0.00010795372 7.9590591e-05 
  313000     2.642419  0.002400105    279726.26    1173697.1 -6.3581398e-05 -0.00014621188 0.00010645715 
  314000    2.6431459 0.0024113201    279726.26    1178714.5 -3.0458023e-05 -0.00011523762  1.98413e-05 
  315000    2.6391252 0.0024004828    279726.26    1183738.6 -0.00013227052 -9.7274886e-05 0.00011495049 
  316000    2.6448546 0.0024016469    279726.26    1188819.2 -0.00026606153 -0.00011014985 9.1754996e-05 
  317000    2.6422042  0.002409277    279726.26    1193940.9 -0.00015142787 -0.00014546465 8.6383316e-05 
  318000    2.6419473 0.0024013116    279726.26    1199083.6 -0.00018002159 -0.00017653126 3.5914044e-05 
  319000    2.6425682 0.0023974399    279726.26    1204218.8 -0.00022239573 -0.00014942377 -2.541334e-05 
  320000    2.6387372 0.0024013768    279726.26    1209411.2 -0.00018709025 -0.00018926674 -2.5860701e-05 
  321000    2.6428189 0.0024243523    279726.26    1214785.4 -0.00020861374 -0.00031239952 -6.6602803e-06 
  322000    2.6383232 0.0024024446    279726.26    1220173.3 -0.00022274906 -0.0003241244 -7.9916719e-06 
  323000    2.6410947 0.0023993385    279726.26      1225556 -0.00021201165 -0.00033873748 3.1538045e-05 
  324000    2.6418684 0.0023956028    279726.26    1231009.3 -0.00020128285 -0.00032449468 -9.2147312e-06 
  325000     2.639269 0.0024011845    279726.26    1236517.1 -0.00029827795 -0.00029375018 -7.9404679e-07 
  326000    2.6425538 0.0023993455    279726.26    1241999.4 -0.0002441055 -0.00025890693 -1.1072517e-05 
  327000    2.6388914 0.0024008475    279726.26      1247506 -0.00017136763 -0.00022080888 -4.0962402e-05 
  328000     2.635844 0.0024535488    279726.26    1253058.1 -0.000114602 -0.00021776615 -7.3386275e-08 
  329000    2.6382601  0.002402068    279726.26    1258634.7 -0.00016605584 -0.00019377844 -9.474931e-06 
  330000    2.6380772 0.0024027232    279726.26    1264276.6 -0.00013895284 -0.00020744727 1.3380105e-05 
  331000    2.6423857 0.0023993685    279726.26    1269825.4 -9.4013452e-05 -0.0001696313 6.5170522e-05 
  332000    2.6399993  0.002399288    279726.26    1275113.2 -1.1642673e-05 -0.0001111386 7.3563503e-05 
  333000    2.6378201 0.0024375797    279726.26    1280364.9 -8.8984184e-05 -5.1260667e-06 -7.7100827e-05 
  334000    2.6509319 0.0024112683    279726.26      1285481 -5.7942004e-06 -0.00012964303 3.677607e-05 
  335000    2.6395947 0.0024004901    279726.26    1290511.9 -1.6016032e-05 -0.00013418751 9.5677339e-05 
  336000    2.6383457 0.0024021574    279726.26    1295542.7 -7.0652455e-05 -9.6643467e-05 0.00013450801 
  337000     2.642029 0.0024271862    279726.26    1300621.2 -0.00013075093 -2.5544272e-05 0.00016401835 
  338000     2.642667 0.0024016884    279726.26      1305651 -0.00011358255 -8.0798271e-05 0.00016005714 
  339000    2.6414783 0.0024012948    279726.26    1310680.7 -0.00014719403 -5.5189807e-05 0.00020661076 
  340000    2.6410002  0.002399102    279726.26    1315687.5 -0.00024897067 -4.7764353e-05 0.0001977863 
  341000    2.6397256 0.0023995137    279726.26    1320629.3 -0.00027249422 -0.00011343454 0.00024705133 
  342000    2.6417331 0.0023980141    279726.26    1325658.7 -0.0002545789 -0.00015215766 0.00024164663 
  343000    2.6414975 0.0024281286    279726.26    1330764.3 -0.00045169822 -5.7248039e-05 0.0003233253 
  344000    2.6416732 0.0023989287    279726.26    1335831.1 -0.00043117842 -0.0001369646 0.00026772174 
  345000    2.6405504 0.0024127105    279726.26    1340857.6 -0.00031194725 -0.00018194903 0.00033789901 
  346000    2.6411649 0.0023982088    279726.26    1345968.2 -0.00032237496 -0.00020220412 0.00036135112 
  347000    2.6398065 0.0024131918    279726.26    1351197.1 -0.00033659205 -0.00022835718 0.00036917623 
  348000    2.6434948 0.0024117978    279726.26    1356399.9 -0.00030784787 -0.00015745404 0.00025668974 
  349000    2.6378763 0.0024029234    279726.26    1361565.5 -0.00030464269 -0.00015571279 0.00025944608 
  350000    2.6397221 0.0023999485    279726.26    1366688.5 -0.00032317959 -0.00011653118 0.00022574054 
  351000    2.6382675  0.002401896    279726.26    1371775.4 -0.00029860523 -8.5632401e-05 0.00016194116 
  352000    2.6420253 0.0024172665    279726.26    1376803.1 -0.00026677361 -8.493775e-05 0.00012974969 
  353000      2.64463 0.0023981558    279726.26    1381818.6 -0.0003827054 -9.6891949e-05 0.00016502159 
  354000    2.6385665 0.0024015583    279726.26      1386751 -0.00040650954 -0.00014944349 0.00019947175 
  355000    2.6379931 0.0024027469    279726.26    1391648.4 -0.00032886936 -5.2313104e-05 0.00017288471 
  356000    2.6394082 0.0024009194    279726.26    1396585.4 -0.00035230816 -3.6672919e-05 0.00019350705 
  357000    2.6403526  0.002398441    279726.26      1401558 -0.00029967422 -6.5822694e-05 0.00023687005 
  358000     2.637555 0.0024037112    279726.26      1406575 -0.00029913066 -4.3580916e-05 0.00029782951 
  359000    2.6409615 0.0023982868    279726.26    1411521.8 -0.0002143676 3.9887061e-05 0.00015522927 
  360000    2.6399527 0.0024019491    279726.26    1416378.5 -0.00025599949 9.2971107e-05 0.00012453366 
  361000    2.6388089 0.0024013683    279726.26    1421286.9 -0.00020779356 8.4506287e-05 0.0001403766 
  362000     2.637951 0.0024024265    279726.26    1426087.4 -0.00017874757 8.3766861e-05 0.00012201636 
  363000    2.6392624 0.0024003843    279726.26    1430845.1 -0.00018582254 0.00015961777 0.00010873032 
  364000    2.6390385 0.0024011013    279726.26    1435607.2 -0.00017489347 9.3811607e-05 8.7347298e-05 
  365000    2.6396199 0.0024014861    279726.26    1440375.7 -0.00018435427 0.00015282879 8.2178728e-05 
  366000    2.6415748  0.002400461    279726.26    1445044.4 -0.00021708594 0.00020755496 -2.877537e-06 
  367000    2.6407213 0.0024535081    279726.26      1449445 -0.00024540251 0.00019773361 -4.9033398e-05 
  368000    2.6384577 0.0024012115    279726.26    1453736.7 -0.00023783361 0.00029743768 -2.4586373e-05 
  369000     2.638775 0.0024011186    279726.26    1457987.9 -0.00027378367 0.0002251862 2.4975318e-05 
  370000    2.6391488 0.0024004635    279726.26    1462163.6 -0.0003466585 0.00020148594 7.5523476e-05 
  371000    2.6420479 0.0024191305    279726.26      1466320 -0.00036017413 0.00027246323 6.9517718e-05 
  372000     2.641429 0.0023983826    279726.26      1470426 -0.0003136245 0.00020441165 0.00013182734 
  373000    2.6344383 0.0024668559    279726.26    1474496.4 -0.00027577185 0.00022906842 9.1733722e-05 
  374000    2.6390847 0.0024008911    279726.26    1478351.4 -0.00029004983 0.0002483336 9.9626666e-05 
  375000     2.642386 0.0023952269    279726.26    1482286.2 -0.00030285241 0.00026056201 0.00013251147 
  376000    2.6420964  0.002400831    279726.26    1486215.1 -0.00023648632 0.00028919156 9.4629811e-05 
  377000    2.6414362 0.0023975756    279726.26    1490180.2 -0.00023885288 0.00024352008 0.00013635813 
  378000    2.6382667 0.0024023487    279726.26    1494140.1 -0.00034489145 0.00024848472 0.00011845929 
  379000    2.6408685 0.0024002502    279726.26    1498020.6 -0.00031675906 0.00025128416 0.00014914018 
  380000    2.6387516 0.0024017822    279726.26    1501915.9 -0.00029215769 0.0002906444 0.00018961757 
  381000    2.6360744  0.002444722    279726.26    1505831.6 -0.00010684464 0.00030816599 5.0235819e-05 
  382000    2.6432778 0.0024004096    279726.26    1509485.6 -0.00026529213 0.00033018626 0.00015867226 
  383000    2.6404478 0.0024140996    279726.26    1513143.9 -0.00020767687 0.00032361659 0.00013227368 
  384000    2.6406261 0.0024122996    279726.26    1516618.4 -0.00013635609 0.00028019477 0.00015995545 
  385000    2.6403631 0.0023994258    279726.26    1520114.1 -0.00011993728 0.00027538073 0.00029960375 
  386000    2.6392883 0.0024004415    279726.26    1523582.8 -8.4169591e-05 0.00034900456 0.00034604003 
  387000    2.6343815 0.0024657111    279726.26    1527088.7 0.0002990791 0.00057484332 0.00033219318 
  388000    2.6398861 0.0023999098    279726.26    1530633.8 -9.7231802e-05 0.00037443005 0.00036139043 
  389000    2.6387325  0.002401974    279726.26    1534255.6 -4.393714e-06 0.00038866393 0.0004191257 
  390000    2.6399331 0.0023996629    279726.26    1537941.6 -8.8119506e-06 0.00035678358  0.000450124 
  391000     2.644296 0.0024128073    279726.26    1541673.5 -5.6009463e-05 0.00039423417 0.0004531956 
  392000      2.63841 0.0024018413    279726.26    1545440.4 8.4089614e-05 0.0001545482 0.00069214487 
  393000     2.643729 0.0023992446    279726.26    1549100.6 2.9744471e-05 0.00011925361 0.00060066858 
  394000    2.6417336 0.0024001932    279726.26    1552382.6 2.7286916e-05 0.00014784696 0.00054898539 
  395000    2.6421798 0.0024019391    279726.26    1555515.6 -5.0153561e-05 0.00015443571 0.00045516698 
  396000     2.637961 0.0024030382    279726.26    1558377.3 -4.9651859e-05 0.00016547696 0.00045917497 
  397000    2.6399627 0.0024010132    279726.26    1561286.7 -8.548742e-05 0.00017022743 0.00044855831 
  398000    2.6387039 0.0024015429    279726.26    1564291.7 2.9991608e-06 0.00018053161 0.00042686647 
  399000    2.6423031 0.0024199543    279726.26    1567342.7 0.00010338302 0.00021654919 0.00049002613 
  400000    2.6436344 0.0024020453    279726.26    1570324.2 4.6194984e-05 0.00024767746 0.0003907377 
  401000    2.6406935 0.0023988309    279726.26    1573388.4 4.2659363e-05 0.00027864762 0.00037420933 
  402000     2.638501 0.0024017972    279726.26    1576557.2 6.950328e-05 0.00026181738 0.00031737589 
  403000    2.6389778 0.0024010996    279726.26    1579854.4 6.6281271e-05 0.00026912277 0.00034390464 
  404000    2.6447222 0.0024026587    279726.26    1583118.4 0.00019781504 0.00023431295 0.00040701105 
  405000    2.6378238 0.0024032461    279726.26    1586236.3 0.00024643547 0.0003551029   0.00043318 
  406000    2.6379788 0.0024027539    279726.26    1589203.5 0.00020515389 0.00030115072 0.00043775129 
  407000    2.6403403 0.0023983535    279726.26    1592188.8 0.00015536231 0.00022297519 0.00045381916 
  408000    2.6420716 0.0023964843    279726.26    1595086.7 9.1481981e-05 0.00020793179 0.00052409418 
  409000    2.6453966 0.0024305584    279726.26    1597965.5 0.00018760101 0.0002307616 0.00051174811 
  410000    2.6412704 0.0023993318    279726.26    1600828.2 0.00014044016 0.00026354278 0.00048522043 
  411000    2.6406805 0.0024000831    279726.26    1603652.1 0.00014008859 0.00024997135 0.00047135748 
  412000    2.6437682 0.0023991276    279726.26    1606513.8 0.00010399348 0.00024714668 0.00049755543 
  413000    2.6391815 0.0024008025    279726.26    1609444.1 0.00010473772 0.00014255632 0.00042881338 
  414000    2.6429021 0.0023970278    279726.26    1612563.2 0.00018305532 0.00019721709 0.00050025653 
  415000    2.6422117 0.0023957003    279726.26    1615729.4 4.0228698e-05 0.00019921712 0.00048352969 
  416000    2.6424808  0.002402236    279726.26    1618953.2 -3.5057667e-05 0.0001853123 0.00051191153 
  417000    2.6424529 0.0024062302    279726.26    1622111.6 -0.00021923551 0.00011832976 0.00037727217 
  418000    2.6377227 0.0024032972    279726.26    1625220.2 -0.00033982268 0.00016075645 0.00040932544 
  419000    2.6383432 0.0024017667    279726.26    1628373.4 -0.00031187531 0.00014643252 0.00042222087 
  420000    2.6392545 0.0024009314    279726.26    1631577.7 -0.00029071636 0.00016042361 0.00046802943 
  421000    2.6420239 0.0023993629    279726.26    1634825.4 -0.00033585595 0.00017745901 0.00044343487 
  422000    2.6380762 0.0024024642    279726.26    1638136.5 -0.00033108143 0.0001564938 0.00037505697 
  423000    2.6380784 0.0024021003    279726.26      1641451 -0.00037557086 0.00019839747 0.00034322548 
  424000    2.6400356 0.0024141481    279726.26    1644839.3 -0.00039739636 0.00017372377 0.00033741096 
  425000    2.6403949 0.0023988034    279726.26    1648229.5 -0.00044002027 0.0002271013 0.00029952311 
  426000    2.6402691 0.0024002891    279726.26    1651569.3 -0.00047459011 0.00018075412 0.00027211758 
  427000    2.6433699 0.0024186266    279726.26    1654950.9 -0.00049430805 0.00020027396 0.0002711949 
  428000    2.6416054 0.0023992942    279726.26    1658337.1 -0.00053571719 0.00020763808 0.00023003161 
  429000    2.6405653 0.0024002005    279726.26    1661729.3 -0.00055842574 0.0001565499 0.00021864444 
  430000    2.6379607 0.0024026641    279726.26    1665155.3 -0.00049773836 0.00015102379 0.00021670514 
  431000    2.6380098 0.0024028189    279726.26    1668634.1 -0.00047634055 9.0602728e-05 0.00018642179 
  432000    2.6376591 0.0024035417    279726.26    1672158.6 -0.00049604789 0.00012139514 0.00019202967 
  433000    2.6410595 0.0023980416    279726.26    1675786.5 -0.00048156868 0.00011677676 0.00011794157 
  434000    2.6377785 0.0024029762    279726.26    1679609.6 -0.00052247535 0.00010806018 0.00012754337 
  435000    2.6435969 0.0023988532    279726.26    1683539.8 -0.00052865592 0.00011617047 0.00017302669 
  436000    2.6414599 0.0024037375    279726.26    1687556.5 -0.00057066719 0.00012839696 0.00019992078 
  437000    2.6401594 0.0024131328    279726.26    1691621.5 -0.00050366318 2.3111828e-05 0.00010994109 
  438000    2.6396912 0.0024000561    279726.26    1695746.2 -0.00058716777 0.00020941953 8.3632928e-06 
  439000    2.6424239 0.0023995435    279726.26    1699866.7 -0.00054317601 0.00013762154 -2.5318173e-05 
  440000    2.6403854 0.0023977733    279726.26      1703984 -0.00054865682 0.00012909621 -1.0569976e-05 
  441000    2.6429926   0.00241957    279726.26    1708084.9 -0.00045458257 0.00020722801 -6.5613592e-06 
  442000    2.6412738 0.0024052052    279726.26    1711939.5 -0.00053184531 0.00014662758 -3.4522538e-05 
  443000    2.6386241 0.0024013056    279726.26    1715753.9 -0.00038169415 0.00022686573 3.6721175e-06 
  444000    2.6374594 0.0024041351    279726.26    1719657.7 -0.00038733979 0.00020485973 1.8829089e-05 
  445000    2.6427393 0.0024118626    279726.26    1723643.3 -0.00031111401 0.00013097845 3.7084419e-05 
  446000    2.6382592 0.0024024078    279726.26    1727739.9 -0.00029016358 0.00021375436 -4.3229093e-05 
  447000    2.6406569 0.0024002165    279726.26    1731913.6 -0.00028804226 0.00019466143 -4.7214642e-05 
  448000    2.6383613 0.0024020819    279726.26    1736070.4 -0.00028158014 0.00022790541 -0.00010942362 
  449000    2.6416167  0.002409877    279726.26      1740285 -0.00023165086 0.00026273397 -0.00016044919 
  450000    2.6417469 0.0024015099    279726.26    1744481.4 -0.00030497166 0.00023975635 -0.00012191876 
  451000    2.6407648 0.0023989199    279726.26    1748623.7 -0.00031415073 0.00020637202 -0.00015554582 
  452000    2.6418717 0.0024002697    279726.26    1752697.3 -0.00035311904 4.6503309e-05 -0.00014184517 
  453000    2.6418565 0.0023963153    279726.26      1756609 -0.00034050743 -4.8732146e-06 -0.00010066061 
  454000    2.6415165 0.0023979909    279726.26    1760573.7 -0.00033957105 1.5421786e-05 -6.9125999e-05 
  455000    2.6461943 0.0024032442    279726.26    1764592.7 -0.00038334589 4.9243015e-05 -0.0001690592 
  456000    2.6429132 0.0023991688    279726.26      1768479 -0.00035511829 0.00012128618 -0.00012287123 
  457000    2.6389951 0.0024003985    279726.26    1772418.7 -0.00035196634 0.00013392029 -0.00010500557 
  458000    2.6400261 0.0024022924    279726.26    1776348.2 -0.0003963159 0.00010121747 -6.4003518e-05 
  459000    2.6452341 0.0024058891    279726.26    1780202.4 -0.00044995821 -5.7380461e-05 1.7050079e-05 
  460000    2.6441183 0.0024327213    279726.26    1784094.5 -0.00041526784 -0.00010300765 -2.4763599e-05 
  461000    2.6432435 0.0024031446    279726.26    1787980.1 -0.0003704133 -5.8323003e-05 5.6118117e-05 
  462000     2.638597 0.0024014593    279726.26    1791810.8 -0.0003801547 -7.8845118e-05 0.00011620716 
  463000    2.6403206 0.0023987596    279726.26    1795687.8 -0.00037841668 -6.1860299e-05 8.3674033e-05 
  464000    2.6398012 0.0024004881    279726.26    1799614.3 -0.00042246778 -6.3881654e-05 6.1012496e-05 
  465000    2.6394908 0.0024002911    279726.26    1803560.5 -0.00042350577 -8.5707208e-05 6.429494e-05 
  466000    2.6395512  0.002400296    279726.26      1807598 -0.00047800489 -5.775757e-05 9.0220051e-05 
  467000    2.6429902 0.0023993484    279726.26    1811670.8 -0.00034022519 -7.7709054e-05 0.00015579882 
  468000    2.6411452 0.0023998116    279726.26    1815672.4 -0.00035085257 -6.4162919e-05 0.00021318294 
  469000    2.6399409 0.0023994602    279726.26    1819581.8 -0.00040491192 -0.00010759755 0.00013617751 
  470000    2.6480459 0.0023967605    279726.26    1823580.2 -0.00034323446 -9.6704092e-05 0.00010562376 
  471000    2.6401494 0.0023995821    279726.26    1827311.4 -0.00037727852 -6.6282904e-05 3.8681821e-05 
  472000    2.6377558  0.002403033    279726.26    1830952.5 -0.0003644111 -2.0732794e-05 9.1942225e-06 
  473000    2.6396944 0.0024462742    279726.26    1834659.9 -0.00028437273 8.3828822e-05  0.000128288 
  474000    2.6387943 0.0024013415    279726.26    1838425.3 -0.00022424131 2.7146078e-05 5.2938443e-05 
  475000    2.6410017  0.002414042    279726.26    1842225.5 -0.0001462271 9.3489623e-05 6.4950063e-05 
  476000    2.6422053 0.0023972891    279726.26    1846128.9 -0.00022545997 0.0001338826 1.3944253e-05 
  477000    2.6395164 0.0024000348    279726.26    1850104.4 -0.00029381606 0.00015788562 8.5375714e-05 
  478000    2.6402748 0.0023987662    279726.26    1854250.1 -0.0002642507 0.00014149282 6.4756239e-05 
  479000    2.6402301 0.0024029855    279726.26    1858473.5 -0.00038028273 9.6151616e-05 5.6268805e-05 
  480000    2.6446963 0.0024058076    279726.26    1862727.6 -0.00035154805 3.799772e-05 0.00010315947 
  481000    2.6380755 0.0024024749    279726.26    1866991.7 -0.00040849824 9.042608e-05 7.6730558e-05 
  482000    2.6402818 0.0024045099    279726.26    1871240.6 -0.00037462677 8.084932e-05 8.1769297e-05 
  483000    2.6397382 0.0024009128    279726.26    1875516.2 -0.00017542712 4.411994e-05 0.00012470229 
  484000    2.6397912 0.0024320651    279726.26    1879827.6 -0.00020218282 5.8895867e-05 9.3179175e-05 
  485000    2.6405931 0.0023993305    279726.26    1884219.7 -0.00020991004 5.9588564e-05 7.401583e-05 
  486000    2.6390876 0.0024008944    279726.26    1888625.2 -0.00029063529 6.6619496e-05 0.00013770451 
  487000     2.638614 0.0024019024    279726.26    1893165.6 -0.00023862159 5.9870022e-05 5.4966993e-05 
  488000    2.6394862 0.0023994142    279726.26    1897765.4 -0.00020670193 0.00011043478 0.00011446324 
  489000    2.6413954 0.0023981387    279726.26    1902367.3 -0.00011310121 0.00016593666 2.355545e-05 
  490000    2.6394552 0.0024001769    279726.26    1906930.3 -9.8676278e-05 0.00015450754 2.865802e-06 
  491000    2.6449507 0.0024007508    279726.26    1911501.8 -3.6082069e-05 0.00018582417 2.3025569e-05 
  492000    2.6380229 0.0024027041    279726.26    1916027.6 -8.6630474e-05 0.0002993011 8.3928242e-05 
  493000    2.6375123 0.0024039361    279726.26    1920620.7 -5.307029e-05 0.00028640886 0.00010127811 
  494000    2.6381271 0.0024021879    279726.26    1925287.4 -5.7421693e-05 0.00032613287 9.6119095e-05 
  495000    2.6424247 0.0024022502    279726.26    1929994.3 -9.6105078e-05 0.00035700954 0.0001258387 
  496000    2.6463286 0.0023985295    279726.26    1934801.5 -0.00011971544 0.00037609455 -1.6859869e-06 
  497000    2.6403562  0.002402658    279726.26    1939593.6 -0.00013167745 0.00036269811 3.4533315e-05 
  498000    2.6398932  0.002402669    279726.26    1944261.5 -0.00019406915 0.00031945962 5.7464015e-05 
  499000    2.6457502 0.0023979227    279726.26    1948851.4 -0.00013276586 0.00023127652 7.8415282e-05 
  500000    2.6405643 0.0023992819    279726.26      1953532 -0.00011210246 0.00032164116 0.00013615898 
  501000    2.6405297  0.002399683    279726.26    1958031.4 -0.00015791314 0.00038646284 9.8337474e-05 
  502000    2.6395738 0.0023992592    279726.26    1962525.5 -0.00014955346 0.00039187421 0.00013366533 
  503000     2.639607 0.0024005272    279726.26    1966937.9 4.2956642e-05 0.00030869669 0.00014041758 
  504000    2.6378989 0.0024028119    279726.26      1971307 5.6500293e-05 0.00025606458 0.00014529697 
  505000    2.6386708  0.002401357    279726.26    1975564.6 4.9918836e-05 0.00034308699 0.00019240066 
  506000    2.6431159 0.0023978053    279726.26    1979792.5 6.324709e-05 0.00033647055 0.0002007805 
  507000    2.6378557 0.0024031198    279726.26    1984024.4 5.2481203e-05 0.00025430407 0.00021534094 
  508000    2.6450298 0.0024035554    279726.26    1988263.2 5.8489455e-05 0.00029871551 0.00022993074 
  509000    2.6442763 0.0024002776    279726.26    1992508.6 0.00013442873 0.00038159902 0.00033223195 
  510000    2.6390152 0.0024015521    279726.26    1996528.5 0.00016826814 0.00045708888 0.00027549591 
  511000    2.6385556 0.0024016308    279726.26    2000533.1 0.00016560374 0.00042235143 0.00025942845 
  512000    2.6404292 0.0024043455    279726.26    2004544.8 0.00016919429 0.00042099212 0.00032530016 
  513000     2.640135 0.0024207191    279726.26    2008597.1 0.00019536193 0.0004385824 0.00039208202 
  514000     2.640899 0.0024164735    279726.26      2012742 0.00010193057 0.00044786985 0.0004763668 
  515000      2.64098 0.0023983937    279726.26    2016900.3 8.6939109e-05 0.00035733424 0.00042281546 
  516000     2.642617 0.0024007187    279726.26    2021148.2 0.00021609326 0.00030498956 0.00042176544 
  517000    2.6394606   0.00240011    279726.26    2025360.4 0.00028658059 0.00035122999 0.00039817925 
  518000    2.6435492 0.0024025902    279726.26    2029617.1 0.0002677943 0.00038082546 0.00039738789 
  519000    2.6404828 0.0024164699    279726.26    2033834.2 0.00019428524 0.00045825426 0.00037740179 
  520000    2.6432291 0.0023996845    279726.26    2038010.3 0.00024779457 0.00033029001 0.00035550669 
  521000    2.6405255   0.00240945    279726.26    2042187.4 0.00026374145 0.00032510113 0.00029848451 
  522000    2.6373513 0.0024666762    279726.26    2046437.7 0.00018290965 0.00031376564 0.00027865129 
  523000     2.638833 0.0024015468    279726.26    2050620.7 0.00014228693 0.00040132108 0.00036785044 
  524000    2.6421572 0.0024396596    279726.26    2054749.2 0.00017458832 0.0003155714 0.00029832095 
  525000    2.6390888 0.0024008039    279726.26    2058743.6 5.1434191e-05 0.00049542244 0.00040229932 
  526000    2.6411713 0.0023997249    279726.26    2062665.5 7.9505635e-05 0.00046278205 0.00037262313 
  527000    2.6422459  0.002400643    279726.26    2066557.5 4.7627627e-06 0.00044446816 0.0004021675 
  528000    2.6395933 0.0024263395    279726.26    2070489.7 4.6628788e-05 0.00048809894 0.0003846944 
  529000    2.6398058 0.0024417949    279726.26    2074443.4 0.00015075524 0.00030034854 0.00036478518 
  530000    2.6385378 0.0024021107    279726.26    2078283.9 0.00017509676 0.00053531538 0.00035405257 
  531000    2.6417684 0.0023985887    279726.26      2081838 0.00023971892 0.00035307905 0.00040414245 
  532000    2.6404421  0.002399577    279726.26    2085345.6 0.00024130311 0.00026756984 0.00043093393 
  533000    2.6393856 0.0024002711    279726.26    2088912.9 0.00020690733 0.00021546933 0.00042156567 
  534000    2.6467226 0.0023980928    279726.26    2092554.5 0.00016417674 0.00020143687 0.00039090466 
  535000    2.6413406 0.0023986238    279726.26    2096346.8 5.1353782e-05 0.00029051384 0.00034983146 
  536000    2.6385034 0.0024017024    279726.26    2100194.6 2.3929075e-05 0.00020925497 0.00030729984 
  537000    2.6424631 0.0024251296    279726.26    2104076.3 3.6949982e-05 0.00026128597 0.0002705973 
  538000    2.6440036 0.0024144717    279726.26    2108012.6 -1.15943e-05 0.00017305609 0.00024901131 
  539000     2.640242 0.0024413123    279726.26    2111975.1 -3.3816916e-05 0.00014839382 0.00029703639 
  540000    2.6391057 0.0024005114    279726.26      2116017 3.1789283e-05 0.00020242272 0.00032544312 
  541000    2.6439797 0.0023949816    279726.26    2120087.5 7.2664396e-05 0.00019319294 0.00031791379 
  542000     2.638914 0.0024012927    279726.26    2124177.6 0.00013893154 0.00021101911 0.00034809264 
  543000    2.6412039 0.0023988664    279726.26    2128289.9 0.00016105934 0.00019011065 0.00041573981 
  544000    2.6431914 0.0024027832    279726.26    2132443.2 0.00016536721 -4.2465134e-05 0.00040915321 
  545000    2.6426362 0.0024001011    279726.26    2136631.1 9.4245908e-05 -1.6904688e-05 0.00039431478 
  546000    2.6410676 0.0024002276    279726.26    2140839.9 7.9721963e-05 -1.906412e-05 0.00040777855 
  547000    2.6389431 0.0024011116    279726.26    2145071.6 0.00010303273 -2.6043687e-05 0.00041036092 
  548000    2.6389097 0.0024019351    279726.26    2149344.5 8.0658433e-05 -8.5667024e-06 0.00038200374 
  549000    2.6375509 0.0024036743    279726.26    2153687.4 7.7434546e-05 9.5147544e-06 0.00037789355 
  550000    2.6391992  0.002400727    279726.26    2157928.1 5.2839933e-05 -4.5476842e-06 0.00028049594 
  551000    2.6379739 0.0024028179    279726.26      2162096 5.7668727e-05 -3.4328073e-05 0.00032734854 
  552000    2.6444132 0.0024041673    279726.26    2166282.5 0.00010251273 -5.7320584e-05 0.00036849506 
  553000    2.6402789 0.0024022727    279726.26    2170401.5 3.8723491e-05 -0.00018022261 0.00050235663 
  554000    2.6403421 0.0023998299    279726.26    2174485.8 9.4065787e-05 -0.0001959434 0.00053320756 
  555000    2.6407184 0.0024005012    279726.26    2178513.8 0.00034574623 -0.00024638428 0.00045585409 
  556000    2.6398617 0.0023998227    279726.26    2182411.7 0.00035615561 -0.00017009805 0.00040500064 
  557000    2.6375575 0.0024036528    279726.26      2186366 0.00036965921 -0.00018151547 0.00039459497 
  558000    2.6428613 0.0023983012    279726.26    2190395.4 0.00027287846 -0.00014374452 0.0003488337 
  559000    2.6429426 0.0023973203    279726.26    2194482.4 0.00032527378 -0.00010686926 0.00037951149 
  560000    2.6382316 0.0024022882    279726.26      2198713 0.00029810401 -0.00011207387 0.00038211118 
  561000    2.6386485 0.0024016837    279726.26    2203052.9 0.00036136237 -0.00010666046 0.00034449772 
  562000    2.6399784  0.002400535    279726.26    2207457.1 0.00033819979 -0.00014533145 0.00029646767 
  563000    2.6424907 0.0024477683    279726.26    2211962.2 0.00033207247 -0.0002386002 0.0002490591 
  564000    2.6389893 0.0024009747    279726.26      2216345 0.0002973565 -9.5622547e-05 0.00014318974 
  565000    2.6374775 0.0024040227    279726.26    2220506.6 0.00023264589 -9.7330496e-05 0.00034367271 
  566000    2.6401329 0.0023993818    279726.26    2224394.5 0.00022516472 -0.00012055032 0.00033563702 
  567000    2.6434862 0.0024027501    279726.26    2228354.5 0.00022252324 -0.00014864737 0.00035171384 
  568000    2.6411215 0.0024013006    279726.26    2232412.9 0.00017751921 -0.00014542785 0.00037542116 
  569000    2.6376872 0.0024035317    279726.26    2236526.6 0.00024256801 -0.00010588666 0.00038201866 
  570000     2.639052 0.0024015253    279726.26    2240703.2 0.00024453092 -8.089648e-05 0.00033242937 
  571000    2.6400883 0.0024075548    279726.26    2244882.6 0.00020727073 -8.9881257e-05 0.00031960318 
  572000    2.6403918 0.0023982057    279726.26    2248999.9 0.00020363637 -1.7052998e-05 0.00031937707 
  573000    2.6390026 0.0024015634    279726.26    2253118.8 0.00016508728 4.0899207e-05 0.00027808594 
  574000     2.640531 0.0024100276    279726.26    2257260.7 0.00016010291 6.8285412e-05 0.00026354225 
  575000    2.6391711 0.0024355552    279726.26    2261386.3 9.7778798e-05 9.5904842e-05 0.00031098812 
  576000     2.639685 0.0023995177    279726.26    2265540.5 9.4749585e-05 0.00010966354  0.000176758 
  577000    2.6421464 0.0023983065    279726.26    2269740.2 0.00010321237 0.00013466152 0.00017496696 
  578000    2.6397354 0.0024182323    279726.26    2274170.8 5.1553901e-05 0.00012645814 0.00010968303 
  579000     2.640878 0.0024047734    279726.26    2278697.2 3.4441893e-05 0.00015899944 8.3708376e-05 
  580000    2.6408356  0.002397692    279726.26      2283224 5.3096632e-05 6.5992505e-05 0.00014758377 
  581000    2.6389746 0.0024013655    279726.26      2287740 1.7726919e-05 5.8224785e-05 0.0001245589 
  582000    2.6382596  0.002402558    279726.26    2292232.6 4.8099628e-06 7.6180531e-05 0.00010512676 
  583000    2.6399198 0.0024017148    279726.26    2296703.7 0.00011914904 -3.106658e-05 0.00023046863 
  584000    2.6367009 0.0024388286    279726.26    2301047.8 0.00010611118 0.00017904962 0.00014064823 
  585000    2.6364143 0.0024528563    279726.26    2305284.6 0.0002407889 -0.00012115031 0.00017985032 
  586000    2.6397129 0.0024004383    279726.26    2309636.5 0.00014393672 -5.9463474e-05 0.00023565165 
  587000    2.6377943 0.0024034782    279726.26    2313823.5 0.00024469342 3.9548704e-05 0.00024559349 
  588000    2.6438555 0.0023986163    279726.26    2317952.1 0.0002785046 4.9430927e-05 0.00028190775 
  589000    2.6384166 0.0024020713    279726.26    2322045.1 0.00036752381 0.00010533102 0.00033688279 
  590000    2.6410158  0.002398868    279726.26    2326220.3 0.00015721133 0.00015824212 0.00035834367 
  591000    2.6394229 0.0024015002    279726.26    2330429.6 0.0001249628 0.00013739298 0.00038020814 
  592000    2.6387039 0.0024017842    279726.26    2334692.5 0.00012503138 0.00018654981 0.00037942898 
  593000    2.6403276  0.002399377    279726.26    2338977.9 0.00016495031 0.0001708629 0.00038932501 
  594000    2.6387255 0.0024008121    279726.26    2343222.1 0.00017486425 0.00014224073 0.00032595386 
  595000    2.6432512 0.0024027411    279726.26    2347549.9 0.00014752242 0.00018796279 0.00032973341 
  596000    2.6431532 0.0024009281    279726.26    2351949.2 9.8159672e-05 0.00015903209 0.00025861124 
  597000    2.6392834 0.0024015021    279726.26    2356270.4 9.8336015e-05 0.00016600398 0.00018211648 
  598000    2.6421106  0.002396485    279726.26    2360615.5 0.00016242502 0.00011950186 0.00022994296 
  599000    2.6388196 0.0024019177    279726.26    2365021.5 0.00014070598 0.00014298546 0.0002002562 
  600000    2.6398429 0.0023991522    279726.26    2369491.2 0.00015419455 8.7880961e-05 0.00020245953 
  601000    2.6363642 0.0024492059    279726.26    2373994.5 0.00019922588 0.00014443694 0.00010755775 
  602000    2.6380671 0.0024022904    279726.26    2378429.7 0.00013611263 0.00013074949 0.00011002725 
  603000    2.6412797 0.0024108083    279726.26    2382689.6 0.00017285932 3.8945437e-05 3.0905465e-05 
  604000    2.6377253 0.0024033433    279726.26    2387008.2 0.00022628353 0.00016088848 4.8459535e-05 
  605000    2.6426392 0.0024015862    279726.26    2391425.1 0.00023657509 0.00017262939 6.0811429e-05 
  606000     2.638667 0.0024013069    279726.26    2395743.2 0.00023992792 5.1437036e-05 -2.5673496e-05 
  607000    2.6391625 0.0024002482    279726.26      2400015 0.00025949555 -1.313764e-05 2.424033e-05 
  608000    2.6426902  0.002394688    279726.26    2404339.4 0.00031550888 -5.829845e-06 7.4148648e-05 
  609000    2.6382717 0.0024022822    279726.26    2408652.7 0.00037594846 -8.9430873e-06 5.7772869e-05 
  610000    2.6431708  0.002397797    279726.26    2412973.7 0.0002921084 -0.00015031728 0.0002032576 
  611000    2.6389654 0.0024009622    279726.26    2417180.6 0.00029419424 -9.5512009e-05 0.00017506903 
  612000    2.6401466 0.0024033956    279726.26    2421436.8 0.0003234689 -6.2739974e-05 0.00014093845 
  613000    2.6402399 0.0024246026    279726.26    2425585.9 0.0002892807 -5.1777096e-05 3.2997201e-05 
  614000    2.6389426 0.0024010779    279726.26    2429816.6 0.00026369354 -0.0001016655 0.00018867297 
  615000    2.6428074 0.0023966272    279726.26    2434049.6 0.00022580853 -0.00014405627 0.00010383109 
  616000    2.6392098 0.0024009129    279726.26    2438247.9 -5.5635515e-06 -8.2751367e-05 -4.488616e-05 
  617000    2.6396136 0.0024006531    279726.26    2442272.4 0.00010190238 -0.00014638454 -0.00018688974 
  618000     2.634296 0.0024587941    279726.26    2446261.7 -2.9150837e-05 -0.00017746191 -0.0001948134 
  619000    2.6398789 0.0024001012    279726.26    2450344.2 4.2863878e-05 -0.00010709395 -0.00020747529 
  620000     2.643118 0.0023997582    279726.26    2454580.9 -6.4413763e-06 -0.0001518532 -0.00018695669 
  621000     2.640259 0.0024080065    279726.26      2458831 2.5409572e-06 -0.00020514449 -0.00018686864 
  622000    2.6376157 0.0024036458    279726.26    2462948.9 -7.4688914e-05 -0.00011093892 -0.00017202759 
  623000    2.6423057 0.0023977758    279726.26    2467140.4 -0.00014680167 -0.00019763217 -0.00020905292 
  624000    2.6409126 0.0024026306    279726.26    2471426.3 -0.0001574027 -0.00026321219 -0.00020692763 
  625000    2.6391386 0.0024002165    279726.26      2475717 -0.00015958728 -0.00028488167 -0.00024091099 
  626000    2.6415633 0.0023975009    279726.26    2479978.6 -0.00018592946 -0.00038561568 -8.4536252e-05 
  627000     2.640365 0.0023985056    279726.26    2484255.5 -0.00016730324 -0.00035841181 -0.00012233715 
  628000    2.6381045 0.0024027096    279726.26    2488532.5 -0.00017848588 -0.00037057764 -0.0001070026 
  629000     2.629756 0.0024848868    279726.26      2492766 -0.00030555325 5.8745513e-06 0.00023853732 
  630000    2.6409915 0.0023975077    279726.26    2497099.3 -0.00032292541 -8.9803426e-05 -7.3446432e-05 
  631000    2.6376304 0.0024035061    279726.26    2501224.8 -0.0003408622 -0.00017948295 -9.4523332e-05 
  632000    2.6421736 0.0024018574    279726.26    2505285.2 -0.00030106665 -0.00011346627 -0.00010068508 
  633000    2.6368993 0.0024714291    279726.26    2509364.2 -0.00065732637 -6.1988948e-05 -0.00027545272 
  634000    2.6438703 0.0024146414    279726.26    2513534.7 -0.00032428262 0.00044016233 -1.2721374e-05 
  635000    2.6395843 0.0024004367    279726.26    2517763.2 -0.00032232386 0.00046393618 1.9631915e-05 
  636000    2.6381998  0.002401933    279726.26    2522075.5 -0.00033332115 0.00050148835  8.22066e-06 
  637000     2.640386 0.0024122979    279726.26    2526421.9 -0.00012545904 0.00048089713 -3.4205946e-05 
  638000    2.6386459 0.0024017488    279726.26    2530692.1 -0.00012136652 0.00050285341 -9.9327356e-05 
  639000    2.6375308 0.0024039195    279726.26    2534968.9 -9.8761638e-05 0.00047724486 -0.00010385468 
  640000    2.6358284 0.0024517401    279726.26    2539354.9 -0.00033713475 0.00053123443 -0.00011209849 
  641000    2.6438332 0.0023970536    279726.26    2543829.9 -0.00015046968 0.00045851838 -0.00018409547 
  642000    2.6403318  0.002404164    279726.26    2548226.7 -8.5357029e-05 0.00026390673 -4.2658784e-05 
  643000    2.6404307 0.0024275001    279726.26    2552547.8 -4.3810481e-05 0.00029423107 2.4063317e-05 
  644000    2.6424026 0.0024445685    279726.26    2556869.2 -4.4704793e-05 0.0001898283 -5.3488714e-06 
  645000    2.6403289 0.0023994184    279726.26    2561182.3 -3.6250823e-05 0.00036749434 4.7680194e-05 
  646000    2.6431271 0.0023984829    279726.26      2565475 -9.9602819e-05 0.00034922399 4.4542452e-05 
  647000    2.6474072 0.0024088028    279726.26    2569700.4 -7.0112237e-05 0.00037622804 1.3618466e-05 
  648000    2.6382644 0.0024020775    279726.26    2573976.4 -0.0001083566 0.0002733845 3.076514e-08 
  649000    2.6380074 0.0024029202    279726.26    2578138.9 -0.00011520768 0.00028616943 1.8733999e-05 
  650000    2.6391235 0.0024010351    279726.26    2582334.3 -0.00015516686 4.1160566e-05 -8.9055321e-05 
  651000    2.6386419 0.0024017557    279726.26    2586461.8 -0.00016664085 -1.2147654e-05 -6.9872919e-05 
  652000    2.6430155 0.0023964592    279726.26    2590570.6 -0.0001591159 -2.6104625e-05 -9.6738689e-05 
  653000    2.6392768 0.0024009082    279726.26    2594813.6 -3.5661933e-05 0.00013764556 1.2741799e-05 
  654000     2.640347 0.0023995896    279726.26      2599118 -0.00010363664 8.6490863e-05 2.1468995e-05 
  655000    2.6417895 0.0024005643    279726.26    2603336.8 -8.0250982e-05 0.00014408799 4.9465065e-05 
  656000    2.6462383 0.0024085851    279726.26    2607578.5 -5.4891996e-05 0.00017890467 0.00011258386 
  657000    2.6422915 0.0024066359    279726.26    2611785.8 2.2640574e-05 0.00027190133 1.5605167e-05 
  658000    2.6414039 0.0023986286    279726.26    2616002.8 1.3366809e-06 0.00027697588 8.7822366e-05 
  659000    2.6383833 0.0024023337    279726.26      2620262 1.737403e-05 0.00016432661 4.779513e-05 
  660000    2.6426082 0.0023985742    279726.26      2624533 -0.00014486993 0.00023192974 6.0524401e-05 
  661000    2.6436026 0.0024273824    279726.26    2628722.4 -0.0003350762 0.00015356065 3.8415131e-05 
  662000     2.640528 0.0024215347    279726.26    2632928.7 -0.00033835479 2.9944082e-05 7.5274803e-05 
  663000    2.6381195 0.0024027112    279726.26    2637290.4 -0.00029039536 4.3090378e-05 6.0234959e-05 
  664000    2.6419444 0.0024252714    279726.26    2641543.3 -0.00028489675 5.3228354e-05 0.00015848932 
  665000    2.6393362 0.0024007557    279726.26    2645637.9 -0.00024340988 0.00011702146 0.00032223805 
  666000    2.6398352 0.0024004088    279726.26    2649826.2 -0.00042717503 0.00016840795 0.00025482241 
  667000    2.6421181 0.0023972658    279726.26    2653954.8 -0.00038064121 0.00027671478 0.00035110919 
  668000     2.640593 0.0023987113    279726.26    2658221.3 -0.00037357061  0.000248004 0.00046015439 
  669000    2.6383295 0.0024020918    279726.26    2662475.5 -0.00043393205 0.00024014516 0.00049187476 
  670000     2.640599 0.0024017702    279726.26    2666681.9 -0.0004732846 0.00024575139 0.00052885703 
  671000    2.6392549 0.0024001873    279726.26    2671015.5 -0.00046362327 0.00022947839 0.00056020559 
  672000    2.6423596 0.0023997874    279726.26    2675387.2 -0.00044964994 0.00020899808 0.00061887864 
  673000    2.6384921 0.0024336603    279726.26    2679740.5 -0.00046450176 0.00022367254 0.00054275189 
  674000    2.6437005 0.0023988043    279726.26    2684147.7 -0.00050675503 0.00014369484 0.0006553593 
  675000    2.6412247 0.0023970265    279726.26    2688622.6 -0.00048789569 0.00010139435 0.00072338475 
  676000    2.6407372 0.0024203663    279726.26    2692894.3 -0.00049279256 6.7605499e-05 0.00083586365 
  677000    2.6394768 0.0024008013    279726.26    2697029.4 -0.00057770392 0.00020212403 0.00088456875 
  678000    2.6399093 0.0023994987    279726.26      2701301 -0.00055668456 0.00015045341 0.00087503825 
  679000     2.638416 0.0024018435    279726.26      2705635 -0.00058730827 0.00015047869 0.00090673733 
  680000    2.6425431 0.0023997512    279726.26    2709988.9 -0.00058167512 0.00018377317 0.00089781651 
  681000    2.6446843 0.0024515442    279726.26    2714295.1 -0.00065737886 0.00017487268 0.00093295142 
  682000    2.6430825 0.0023954789    279726.26    2718620.6 -0.00067006082 0.00012254017 0.00087925667 
  683000    2.6393966 0.0023997861    279726.26    2722881.9 -0.00060027554 0.00016547317 0.00080928858 
  684000    2.6416423 0.0024009961    279726.26    2727221.1 -0.00061667772 0.0001938063 0.00082403531 
  685000    2.6412365 0.0024002652    279726.26    2731629.6 -0.00056346182 0.00016583461 0.00087628138 
  686000    2.6409287 0.0024083397    279726.26    2736105.4 -0.00062741783 0.00025027603 0.00085929993 
  687000     2.638287 0.0024022738    279726.26    2740635.4 -0.00064349174 0.00021221102 0.00084576419 
  688000    2.6385226 0.0024017925    279726.26    2745205.7 -0.00061959838 0.00024858825 0.00088289444 
  689000    2.6421562 0.0023974999    279726.26    2749790.4 -0.0006242836 0.0002221077 0.00084925671 
  690000    2.6439365  0.002403213    279726.26    2754279.1 -0.00058583178 0.00029298517 0.00086761951 
  691000    2.6452616 0.0024244324    279726.26    2758743.8 -0.00058006808 0.00031572731 0.00088563605 
  692000    2.6421561 0.0023959853    279726.26    2763170.7 -0.00046052432 0.00036000659 0.00074811087 
  693000    2.6432454 0.0023966988    279726.26    2767536.8 -0.00042223795 0.00045593361 0.00072071443 
  694000     2.640606 0.0024526462    279726.26    2771819.4 -0.00059197494 0.00057226774 0.00063004933 
  695000    2.6380009 0.0024024963    279726.26    2776139.6 -0.00057322424 0.00043951651 0.00081390852 
  696000    2.6390171 0.0024012497    279726.26    2780350.5 -0.00057871491 0.0005116849 0.00078641468 
  697000    2.6405204 0.0023986155    279726.26    2784631.5 -0.00056310917 0.00049758129 0.00081832401 
  698000    2.6395376 0.0024008725    279726.26      2788755 -0.00052434899 0.00055492158 0.00068650561 
  699000    2.6443792 0.0023971513    279726.26    2792896.3 -0.00051036095 0.00055596675 0.00072042678 
  700000    2.6437894 0.0023995292    279726.26    2797065.2 -0.00044108445 0.00058256873 0.00074247519 
  701000    2.6404557 0.0024030444    279726.26    2801427.8 -0.00039314324 0.00056400813 0.0007474842 
  702000    2.6381595 0.0024024691    279726.26    2805963.7 -0.00032732481 0.00065384229 0.00078664874 
  703000     2.639865 0.0024003418    279726.26    2810587.9 -0.00035435227 0.00063045062 0.00080365162 
  704000    2.6392962 0.0024010288    279726.26    2815213.6 -0.00035862756 0.00064312332 0.00085614936 
  705000    2.6410105 0.0024001832    279726.26      2819825 -0.00037629572 0.00062639778 0.0008532677 
  706000    2.6404781 0.0023998258    279726.26    2824436.4 -0.00045126576 0.00050003328 0.00068783508 
  707000    2.6423128 0.0023977251    279726.26    2829094.8 -0.00047843538 0.00047979441 0.00077453313 
  708000    2.6407484 0.0024029612    279726.26    2833909.2 -0.00047396772 0.00046196521 0.00076482174 
  709000    2.6387569 0.0024019983    279726.26    2838840.7 -0.00044631115 0.00046983949 0.00068439083 
  710000    2.6413096 0.0023997759    279726.26    2843989.3 -0.00038316132 0.00054835492 0.00074367716 
  711000    2.6382725 0.0024021316    279726.26      2849302 -0.00038032627 0.00053772973 0.00075305056 
  712000    2.6426708 0.0024072583    279726.26    2854613.1 -0.00041129479 0.00066099613 0.00079229408 
  713000    2.6406902 0.0023987604    279726.26      2859888 -0.00047177074 0.00065218394 0.00071876671 
  714000    2.6416678 0.0024109711    279726.26    2865192.5 -0.00049924716 0.00066352536 0.00075305645 
  715000    2.6403332 0.0024052162    279726.26    2870543.1 -0.00045557714 0.00062450221 0.00073903291 
  716000    2.6384005 0.0024017043    279726.26    2875676.7 -0.00045037531 0.00066765419 0.00069869168 
  717000    2.6384451 0.0024021291    279726.26    2880771.4 -0.00047579132 0.0005847041 0.00069677745 
  718000    2.6455082 0.0023964165    279726.26    2885871.7 -0.00046524834 0.00058216483 0.00078621412 
  719000    2.6408289  0.002398192    279726.26    2890948.3 -0.00045661855 0.00061702776 0.00072964856 
  720000    2.6407409 0.0024004286    279726.26    2896015.9 -0.00055186226 0.00059738969 0.00070570542 
  721000    2.6392223   0.00240075    279726.26    2901109.9 -0.00052788745 0.00060649237 0.00068907378 
  722000    2.6437043  0.002402545    279726.26    2906264.3 -0.00057901957 0.00057230649 0.00069646087 
  723000    2.6342306 0.0024902303    279726.26    2911441.4 -0.00061612717 0.00058059907 0.0008893289 
  724000    2.6386507 0.0024021508    279726.26    2916625.5 -0.00070543967 0.00026772053 0.00084807233 
  725000    2.6398709  0.002400247    279726.26    2921852.9 -0.0007784561 0.00023324611 0.00077076967 
  726000    2.6382524 0.0024020415    279726.26    2927123.6 -0.00078288281 0.00023157268 0.00081358753 
  727000    2.6407909 0.0023995231    279726.26    2932405.4 -0.00082636735 7.7981917e-05 0.00070279341 
  728000    2.6381182 0.0024025291    279726.26    2937595.3 -0.00084900658 0.00011899946 0.00073759399 
  729000    2.6390485 0.0024006173    279726.26    2942795.6 -0.00083414069 0.0001155413 0.00073107142 
  730000    2.6390076  0.002400652    279726.26    2948012.4 -0.00086058669 0.00030146122 0.00084085782 
  731000    2.6397297 0.0024013003    279726.26      2953255 -0.00088845418 0.00027264471 0.0008327626 
  732000    2.6448439 0.0023996446    279726.26    2958501.8 -0.00092144188 0.00019735084 0.00078078194 
  733000    2.6407856 0.0024023002    279726.26    2963778.5 -0.00096667165 0.00023054798 0.0007705884 
  734000    2.6399166  0.002402049    279726.26    2969177.1 -0.00096098783 0.00022373428 0.0007590349 
  735000    2.6389633 0.0024012611    279726.26    2974710.4 -0.00096100533 0.0002383818 0.00062795276 
  736000     2.638503  0.002401808    279726.26    2980417.8 -0.00096999871 0.00030206855 0.0005993978 
  737000    2.6439378 0.0023954681    279726.26    2986069.4 -0.00098385724 0.00022033044 0.00036772692 
  738000    2.6378855 0.0024029073    279726.26    2991657.5 -0.00099065999 0.00027225578 0.00030196063 
  739000    2.6391563  0.002401409    279726.26    2997270.7 -0.00098688388 0.00027086204 0.00027277553 
  740000    2.6327046 0.0024727773    279726.26    3002901.2 -0.00098666613 0.00024522203 0.00037712593 
  741000    2.6380286 0.0024026516    279726.26    3008545.4 -0.00098732379 0.00028562743 0.00028510172 
  742000    2.6383031 0.0024019496    279726.26    3014251.5 -0.00092652062 0.0002813805 0.00038143966 
  743000    2.6417689 0.0024140478    279726.26    3020113.3 -0.00091978589 0.00031321696 0.00035954607 
  744000    2.6415956 0.0023994453    279726.26    3026059.1 -0.00091543606 0.00030809255 0.00034059197 
  745000     2.640235 0.0024020933    279726.26    3032132.9 -0.00091849438 0.00031561242 0.00031188461 
  746000     2.643233 0.0024031569    279726.26    3038233.9 -0.00090203144 0.00030318582 0.00022981624 
  747000    2.6406873 0.0024020028    279726.26      3044282 -0.00084513512 0.00029857292 0.00023110629 
  748000    2.6408424 0.0023988441    279726.26    3050395.1 -0.00083654593 0.00031059538 0.00022989532 
  749000    2.6409036 0.0024141571    279726.26    3056658.2 -0.00094190601 0.00016259596 0.0003844343 
[...]
 1820000    2.6375731  0.002403765    279726.26      8596207 0.00044251228 0.00020461134 -0.00079802714 
 1821000    2.6401351  0.002398816    279726.26    8600501.6 0.00047693014 0.00016338921 -0.00070238944 
 1822000    2.6400288  0.002400252    279726.26    8604461.6 0.00048392311 4.3671536e-05 -0.0009043729 
 1823000    2.6410082 0.0023994087    279726.26    8608382.1 0.00051539024 -3.3367433e-05 -0.00092461975 
 1824000    2.6383856  0.002401659    279726.26    8612216.1 0.00064446839 -0.00011320843 -0.00089754788 
 1825000    2.6396769 0.0024007886    279726.26    8615807.3 0.00072727089 -2.5694375e-05 -0.00074947883 
 1826000    2.6413009 0.0024427957    279726.26    8619251.3 0.00058513827 7.2930299e-05 -0.00073452696 
 1827000    2.6383159 0.0024022598    279726.26    8622857.3 0.00074904306 -9.2907963e-05 -0.00083329562 
 1828000    2.6409413 0.0024006516    279726.26    8626480.1 0.00079175536 -6.1587615e-05 -0.00080328253 
 1829000     2.641863 0.0024110044    279726.26    8630140.6 0.00078421767 -0.00020674082 -0.00059735977 
 1830000    2.6397914 0.0023999809    279726.26    8633678.3 0.00072355789 -0.00025429875 -0.00059445512 
 1831000    2.6447617 0.0023956874    279726.26    8636880.2 0.00066699126 -0.00018860994 -0.00049488702 
 1832000    2.6405936  0.002400019    279726.26    8639707.5 0.00062244844 -0.00022213868 -0.00054716846 
 1833000    2.6386035 0.0024368065    279726.26    8642616.6 0.00065211219 -0.00028648619 -0.00047126921 
 1834000    2.6418937 0.0023975416    279726.26    8645233.1 0.00052913396 -0.00017036092  -0.00031552 
 1835000    2.6437579 0.0023978229    279726.26    8647731.4 0.00046987412 -8.7823141e-05 -0.00036775358 
 1836000    2.6381562 0.0024024264    279726.26    8650374.9 0.00048984971 -0.00011077574 -0.00036635609 
 1837000    2.6378159 0.0024028692    279726.26    8653163.9 0.00053656094 -0.00012470732 -0.00040462179 
 1838000    2.6392392 0.0024008633    279726.26    8655979.9 0.00048924053 -6.8966018e-05 -0.00034799064 
 1839000    2.6379886  0.002429064    279726.26    8658915.1 0.0005029185 -0.00017474177 -0.00027138085 
 1840000    2.6394783  0.002401213    279726.26    8661786.7 0.00045192345 -0.0001245247 -0.00021262189 
 1841000    2.6422853 0.0024018782    279726.26    8664653.6 0.00044566464 -0.00017134185 -0.00013912009 
 1842000    2.6464203 0.0024066127    279726.26    8667888.7 0.00042808954 -0.00017896886 -0.00013721252 
 1843000    2.6402883 0.0023991292    279726.26    8671462.4 0.00042744711 -0.00019092686 -8.5458698e-05 
 1844000    2.6408161 0.0023987073    279726.26    8675106.1 0.00041287339 -0.00023584261 -9.357132e-05 
 1845000    2.6382159 0.0024329636    279726.26    8678800.3 0.00049617447 -0.00012650651 -0.0002335168 
 1846000    2.6448977 0.0024347826    279726.26    8682323.1 0.00022519214 -0.00025690026 -0.00011858593 
 1847000    2.6351873 0.0024538273    279726.26    8685751.2 0.00035780086 -0.00032996256 -0.000108571 
 1848000    2.6400624 0.0024042666    279726.26    8689203.3 0.00011882463 -0.00018541253 -0.00028337135 
 1849000    2.6384834 0.0024017272    279726.26    8692946.6 0.00010123425 -0.00015449618 -0.00032272532 
 1850000    2.6381281 0.0024025736    279726.26    8696990.1 9.9497486e-05 -0.00016022417 -0.00035388918 
 1851000     2.641311 0.0023994398    279726.26    8701000.4 0.00011232916 -0.00021354665 -0.00042805528 
 1852000    2.6395232 0.0024005857    279726.26    8704927.6 0.00014442739 -0.000148944 -0.00038166726 
 1853000    2.6389127 0.0024014936    279726.26    8708477.4 0.00013496221 -0.00026432488 -0.00041797657 
 1854000    2.6390237 0.0024008226    279726.26    8712034.9 0.00016724809 -0.00024580804 -0.00046763529 
 1855000    2.6385418 0.0024017714    279726.26    8715546.1 0.00018909894 -0.00029057397 -0.00046151936 
 1856000     2.639629 0.0024018217    279726.26    8718895.8 0.00020345762 -0.00028519092 -0.00044477161 
 1857000     2.642048  0.002404758    279726.26    8722366.8 0.00029495185 -0.0004445498 -0.00048444126 
 1858000     2.638795 0.0024013746    279726.26    8725931.9 0.0002518985 -0.00045988148 -0.00048236904 
 1859000    2.6408303 0.0024018907    279726.26    8729583.9 0.00020445478 -0.00045745603 -0.00036593134 
 1860000    2.6388485 0.0024009385    279726.26    8733122.2 0.00019264738 -0.0004144808 -0.00038263712 
 1861000    2.6388136 0.0024010012    279726.26    8736758.9 0.00017356261 -0.00044149525 -0.00041353706 
 1862000    2.6480818 0.0023993502    279726.26    8740446.1 0.00014267426 -0.0003376724 -0.00058072272 
 1863000    2.6381526 0.0024025532    279726.26    8744133.8 0.00015532931 -0.00039874273 -0.00060552516 
 1864000    2.6428554 0.0024222401    279726.26    8747879.9 0.0002065356 -0.00031263231 -0.00055674653 
 1865000    2.6385943 0.0024326447    279726.26    8751601.7 0.00032988321 -0.00025214334 -0.00068554319 
 1866000    2.6451944  0.002393965    279726.26    8755222.6 0.00033558132 -0.00032627484 -0.00061132815 
 1867000    2.6381849  0.002402593    279726.26    8759147.2 0.00025591235 -0.00032824559 -0.00061720747 
 1868000    2.6430397 0.0023973999    279726.26    8763188.3 0.00028007749 -0.00024669874 -0.00062285333 
 1869000    2.6407255 0.0024304955    279726.26    8767081.2 0.00023413056 -0.00022006414 -0.00060457512 
 1870000     2.639452  0.002401051    279726.26    8771093.4 0.00034601862 -0.00020776826 -0.00045134041 
 1871000     2.643467 0.0023993173    279726.26    8775054.1 0.00035551394 -0.00020988021 -0.00044195552 
 1872000    2.6383928 0.0024017954    279726.26    8778962.5 0.00033477704 -0.00018561732 -0.00041341506 
 1873000    2.6421647 0.0024009875    279726.26    8782946.2 0.00034073575 -0.00027165651 -0.00036388557 
 1874000    2.6432303 0.0024287027    279726.26    8786989.3 0.00034781075 -0.00021254855 -0.00034580184 
 1875000    2.6398863 0.0024005702    279726.26    8791068.8 0.00030552072 -0.00024401715 -0.00034598134 
 1876000    2.6426141  0.002403282    279726.26      8795371 0.00032187853 -0.00028052206 -0.0003649034 
 1877000    2.6396284 0.0024000981    279726.26    8799723.1 0.00034136061 -0.00024912654 -0.00036011151 
 1878000    2.6383854 0.0024021714    279726.26      8804194 0.00030570245 -0.0001317517 -0.00039688225 
 1879000    2.6386279 0.0024011316    279726.26    8808698.9 0.00027323191 -0.00013465145 -0.00029576592 
 1880000    2.6431343 0.0023972319    279726.26    8813234.6 0.00023473485 -0.00015612081 -0.00028269176 
 1881000     2.643768 0.0024002478    279726.26    8817737.5 0.00022232408 -0.00019507009 -0.00031666494 
 1882000    2.6443938 0.0023971376    279726.26      8822148 0.00021086981 -0.00015632848 -0.00028105711 
 1883000    2.6391116  0.002400578    279726.26    8826510.6 0.00033308335 -0.00026422744 -0.00026095758 
 1884000    2.6390011 0.0024012936    279726.26    8830792.4 0.00023866617 -0.00023113287 -0.00027339149 
 1885000    2.6395131  0.002430774    279726.26    8834960.5 0.00016903864 -6.5478371e-05 -0.00028222414 
 1886000    2.6401578 0.0024068839    279726.26    8839069.6 0.00017176775 -3.7499746e-05 -0.00028460699 
 1887000    2.6459726 0.0024064432    279726.26    8843262.6 0.00011381724 -3.782401e-05 -0.00032299386 
 1888000    2.6392612 0.0024005547    279726.26      8847509 0.00013738744 -9.7399768e-05 -0.00039798902 
 1889000    2.6392721 0.0024212577    279726.26    8851897.1 0.00011825325 -0.00016573179 -0.00032939647 
 1890000     2.639112 0.0024009266    279726.26    8856332.7 0.00016854665 -0.00014155861 -0.0003641707 
 1891000    2.6420757 0.0023968754    279726.26    8860823.1 0.00018559774 -0.00019515206 -0.00034924651 
 1892000    2.6401153 0.0024034364    279726.26    8865399.8 0.00031656472 -0.00031487698 -0.00031736839 
 1893000    2.6406865 0.0024047497    279726.26    8870087.9 0.00029399736 -0.00034633157 -0.0003338574 
 1894000    2.6404407 0.0024007898    279726.26    8874842.9 0.00023843627 -0.00033056213 -0.00033173541 
 1895000    2.6385929 0.0024012873    279726.26    8879516.5 0.00016789251 -0.00028061905 -0.00035257599 
 1896000    2.6409566 0.0024134027    279726.26    8884121.3 0.00017639091 -0.00034943636 -0.00030214713 
 1897000    2.6367153 0.0024996784    279726.26    8888835.6 -5.2555693e-05 3.0869415e-05 -0.00053282762 
 1898000     2.641063 0.0023997396    279726.26    8893843.1 0.00018880931 -0.0004780283 -0.00038285843 
 1899000    2.6398281 0.0024001196    279726.26    8898839.2 0.00011120577 -0.0005064086 -0.00042033309 
 1900000    2.6405977 0.0024029823    279726.26    8903915.6 0.00010419056 -0.00050099271 -0.00035307645 
 1901000    2.6453496 0.0023923323    279726.26    8909025.8 9.7084767e-05 -0.00046001927 -0.00038349205 
 1902000    2.6381758 0.0024026442    279726.26    8914032.6 0.00012145167 -0.00038356436 -0.00032710043 
 1903000    2.6418712    0.0024045    279726.26    8918912.6 0.0001094683 -0.00039188803 -0.00037190565 
 1904000    2.6431692 0.0024142746    279726.26    8923910.6 0.00013783563 -0.0003822274 -0.00035975578 
 1905000    2.6399531 0.0024015804    279726.26    8928783.6 0.00012575911 -0.00032794392 -0.00033496261 
 1906000    2.6417559 0.0024017877    279726.26    8933515.1 0.00011065483 -0.00034895006 -0.00035166226 
 1907000    2.6377663 0.0024030605    279726.26    8938232.6 0.00013349334 -0.00039733336 -0.00040179718 
 1908000    2.6419115 0.0023991882    279726.26    8942772.5 9.1030458e-05 -0.00040685155 -0.00039704467 
 1909000    2.6397633 0.0024001952    279726.26    8947220.6 0.00011858059 -0.00042315878 -0.00037504807 
 1910000    2.6384911 0.0024014944    279726.26      8951915 0.00017144038 -0.00033389398 -0.00044759417 
 1911000    2.6421393 0.0024044369    279726.26    8956591.3 6.5283509e-05 -0.00034884396 -0.00045294239 
 1912000    2.6398255 0.0024003821    279726.26    8961339.8 7.0838907e-05 -0.00040197381 -0.00043023416 
 1913000    2.6463759  0.002393453    279726.26    8966046.7 0.00013005288 -0.00043954789 -0.00037702805 
 1914000    2.6377749 0.0024034045    279726.26    8970725.1 0.00012841239 -0.00040416581 -0.00036802679 
 1915000    2.6393192 0.0024007456    279726.26    8975500.3 0.0001643088 -0.00039119654 -0.0003161329 
 1916000       2.6375 0.0024041082    279726.26    8980385.8 7.4870917e-05 -0.00041479977 -0.000308848 
 1917000    2.6396789 0.0023995274    279726.26    8985245.7 6.0658222e-05 -0.00033026535 -0.00020223475 
 1918000    2.6377748 0.0024030375    279726.26      8990248 2.3302611e-05 -0.00034910413 -0.00023124963 
 1919000    2.6409767 0.0024185185    279726.26      8995484 -1.0198885e-05 -0.00036397607 -0.00021891911 
 1920000    2.6423181   0.00240144    279726.26    9001212.7 4.9176595e-05 -0.00045971872 -0.00019903945 
 1921000    2.6391551 0.0024014891    279726.26    9007114.8 -4.4830977e-06 -0.00043618063 -0.0002299669 
 1922000    2.6401819 0.0024018459    279726.26    9013068.4 -1.526763e-05 -0.00053037185 -0.00018277365 
 1923000    2.6440422 0.0024031998    279726.26    9019163.5 -1.9721201e-05 -0.00049874769 -0.00017244046 
 1924000    2.6423921 0.0023984164    279726.26    9025629.5 2.4946148e-05 -0.00036463701 -0.00026139657 
 1925000      2.63862  0.002400905    279726.26    9031978.4 -2.1491501e-05 -0.00037659204 -0.00024823079 
 1926000    2.6364677 0.0024430251    279726.26    9037992.5 -5.1275882e-05 -0.00031697984 -9.4892385e-05 
 1927000    2.6386204 0.0024022616    279726.26    9043887.8 -3.6403403e-05 -0.00030937925 5.7316377e-05 
 1928000    2.6429554 0.0024105177    279726.26    9050052.9 -9.0563221e-06 -0.00031013291 7.9827746e-05 
 1929000    2.6427821 0.0024058597    279726.26    9056325.8 5.6863274e-06 -0.00021356892 1.9998418e-06 
 1930000     2.641701 0.0023983885    279726.26    9062517.1 -7.452423e-05 -0.00024000822 2.1067763e-05 
 1931000    2.6401591 0.0023990398    279726.26    9068548.8 -3.0891919e-05 -0.00026833494 -5.0692199e-05 
 1932000    2.6391678 0.0024011794    279726.26    9074517.6 -0.00011728086 -0.0002133909 -6.3471142e-05 
 1933000    2.6429106  0.002406091    279726.26    9080350.3 -0.00011561263 -0.0002050495 -9.9439075e-05 
 1934000    2.6417667 0.0024035783    279726.26    9086328.9 -9.0069903e-05 -0.00017727362 -5.5094846e-05 
 1935000     2.641627 0.0023971514    279726.26    9092392.6 -6.5683282e-05 -0.00015379757 -2.6368383e-05 
 1936000    2.6404699 0.0024003192    279726.26    9098403.6 -0.00014985686 -0.00016728227 2.4365811e-05 
 1937000    2.6396089 0.0024004151    279726.26    9104136.8 -0.0002277835 -0.00011873671 2.5677081e-05 
 1938000    2.6415138 0.0024026928    279726.26    9109672.1 -0.00021190427 -0.00011382478 8.1143098e-06 
 1939000     2.640648 0.0024006124    279726.26    9115310.8 -0.00016584387 -6.9963749e-05 6.2015512e-05 
 1940000    2.6402164 0.0023988406    279726.26    9120737.7 -0.00023397384 2.6512722e-05 -0.00011960902 
 1941000    2.6407702 0.0024122158    279726.26    9126079.7 -0.00020185948 -5.164703e-05 -0.00015922555 
 1942000    2.6417848 0.0024005009    279726.26    9131235.7 -0.00020121053 -6.1836806e-05 1.723779e-05 
 1943000    2.6465341 0.0024268985    279726.26    9136202.3 -0.00038637753 -5.9678554e-05 -9.0996167e-05 
 1944000    2.6401691 0.0023987577    279726.26    9140825.3 -0.00015003953 -0.00021541632 -0.00010544506 
 1945000    2.6436472 0.0024112899    279726.26    9145016.2 -0.00024001693 -0.00016865516 -0.00012883198 
 1946000    2.6387175 0.0024018344    279726.26    9149337.2 -0.00026602625 -0.00029222982 -1.4891115e-05 
 1947000    2.6376687 0.0024033742    279726.26    9153804.3 -0.00029540315 -0.00026122577 -1.5181233e-05 
 1948000    2.6419487 0.0023973669    279726.26    9158284.7 -0.00027081037 -0.00027301037 1.2762584e-05 
 1949000    2.6407592 0.0024312539    279726.26    9162514.2 -0.00034259185 -0.00025942956 8.9419958e-05 
 1950000    2.6428398 0.0023961297    279726.26    9166726.4 -0.00033667932 -5.7396599e-05 1.0080026e-05 
 1951000    2.6415665 0.0023987609    279726.26    9171120.5 -0.00034714236 -6.6149003e-05 5.9694714e-05 
 1952000    2.6438222 0.0023991558    279726.26    9175469.3 -0.00035403993 -4.6013304e-05 4.2714456e-05 
 1953000    2.6412695 0.0023984764    279726.26    9179681.3 -0.00036140381 -4.3645025e-05 3.4446443e-05 
 1954000    2.6425903 0.0024229846    279726.26      9183896 -0.00047064599 -0.00012684273 -6.8558918e-05 
 1955000     2.643994 0.0024047028    279726.26    9188378.3 -0.00041000712 -0.00014697556 -3.2958347e-05 
 1956000    2.6432172 0.0024005275    279726.26    9192879.7 -0.00043016423 -0.00018899283 -7.1194483e-05 
 1957000    2.6428899 0.0024020734    279726.26    9197501.1 -0.00043152801 -0.00017014154 -4.9550791e-05 
 1958000    2.6419524 0.0024055951    279726.26    9202147.7 -0.00060358317 -0.00010084866 -7.1702341e-05 
 1959000    2.6422429 0.0024185979    279726.26    9206898.4 -0.00059629058 -1.0653692e-05 -0.00011031973 
 1960000    2.6444756  0.002396537    279726.26    9211805.6 -0.00050904214 -6.3681731e-05 -0.00010680573 
 1961000    2.6396304 0.0024012566    279726.26    9216792.1 -0.00046785996 -4.7825928e-05 -0.0001313047 
 1962000    2.6418226 0.0024137591    279726.26    9221744.9 -0.00041799996 -0.00010782637 -0.00013180029 
 1963000    2.6401531 0.0023997535    279726.26    9226790.5 -0.00043928249 -9.5621289e-05 -0.00018462364 
 1964000    2.6398597 0.0024003993    279726.26    9231846.1 -0.00044907247 -6.4966913e-05 -0.00021721364 
 1965000    2.6450688 0.0023982748    279726.26    9236911.4 -0.00047905373 -9.4014219e-05 -0.00021121479 
 1966000    2.6439494 0.0024061172    279726.26    9241722.8 -0.00050490594 -0.00023725863 -0.00023488997 
 1967000    2.6416258 0.0024023304    279726.26    9246312.4 -0.0005128481 -0.00023650722 -0.00023512251 
 1968000     2.643584 0.0024159166    279726.26    9250669.5 -0.0005316648 -0.00028423482 -0.00023520207 
 1969000    2.6456735 0.0024010609    279726.26    9255243.8 -0.00051252179 -0.00028598004 -0.00045044648 
 1970000    2.6409342 0.0024070238    279726.26    9259969.2 -0.00062935408 -0.00017039554 -0.00060323701 
 1971000    2.6413176 0.0024003496    279726.26    9264685.6 -0.00061549672 -0.00020336934 -0.0006376773 
 1972000    2.6450805 0.0023948565    279726.26    9269518.8 -0.00060014674 -0.00021860283 -0.00063474716 
 1973000    2.6414039  0.002404688    279726.26    9274503.3 -0.00064111837 -0.00018464714 -0.00068057802 
 1974000    2.6385883 0.0024560289    279726.26    9279390.4 -0.00057445737 -0.00015400681 -0.00079125096 
 1975000    2.6448674 0.0024304205    279726.26    9284449.5 -0.00060569409 -8.8996812e-05 -0.00070854766 
 1976000    2.6434525 0.0024318201    279726.26    9289262.4 -0.00054224151 -9.2494638e-05 -0.00068392752 
 1977000    2.6412555 0.0024072832    279726.26    9294098.1 -0.00057441444 -0.00015048983 -0.00062605078 
 1978000    2.6436098 0.0023980165    279726.26    9299348.2 -0.00047517417 -0.00035258302 -0.0005238896 
 1979000    2.6402425 0.0024016706    279726.26    9304895.7 -0.00046386881 -0.00035795827 -0.00054473482 
 1980000    2.6444567 0.0024000659    279726.26    9310559.4 -0.00044934022 -0.00027734177 -0.0004844874 
 1981000    2.6426226 0.0024015172    279726.26    9316181.7 -0.00052754242 -0.00034568549 -0.00045809851 
 1982000    2.6412178 0.0024002481    279726.26    9321765.1 -0.00056640882 -0.00028528169 -0.00051415378 
 1983000    2.6450041 0.0023995672    279726.26    9327475.1 -0.00059869557 -0.00048751454 -0.00054501918 
 1984000    2.6408158 0.0024453274    279726.26    9333165.7 -0.00057670014 -0.00052174168 -0.00043989523 
 1985000    2.6512488 0.0024452525    279726.26    9338772.4 -0.00070404965 -0.00064771102 -0.00047184736 
 1986000    2.6452366 0.0023970348    279726.26    9343851.8 -0.00057128908 -0.00052365769 -0.00061199567 
 1987000    2.6422289 0.0023984443    279726.26    9348592.4 -0.00059875617 -0.00048328874 -0.00049745453 
 1988000    2.6416044 0.0024091314    279726.26    9353604.6 -0.00055942046 -0.00047085506 -0.00048237224 
 1989000     2.641935 0.0024013516    279726.26    9359205.7 -0.00055221865 -0.00042861215 -0.00048863341 
 1990000    2.6426718 0.0023965267    279726.26    9365131.8 -0.00050235693 -0.00063713829 -0.00028926154 
 1991000    2.6426628 0.0024013621    279726.26    9371058.7 -0.0005205571 -0.0006452967 -0.00036594596 
 1992000    2.6427245 0.0024103154    279726.26    9377006.8 -0.0004987999 -0.00041422801 -0.00020995586 
 1993000    2.6437518 0.0023956765    279726.26    9382889.5 -0.00054304854 -0.00038479954 -0.00022839687 
 1994000    2.6438873 0.0024086884    279726.26    9388602.4 -0.00085421197 -0.00038425531 -0.00036893419 
 1995000    2.6411163 0.0024099757    279726.26    9394469.9 -0.00087029765 -0.00039210561 -0.00027576204 
 1996000    2.6424668 0.0024381786    279726.26    9400215.5 -0.00086951984 -0.00026528677 -0.00011927749 
 1997000    2.6435965 0.0023973474    279726.26    9405561.2 -0.00074876972 -0.00021776238 -0.00020519403 
 1998000    2.6432248 0.0024122062    279726.26    9411018.3 -0.00068097482 -0.00022051144 -0.00025408586 
 1999000    2.6428317 0.0023991996    279726.26    9416491.4 -0.00048786488 -0.00027307644 -0.00031828113 
 2000000    2.6458542 0.0024257765    279726.26    9421762.5 -0.00046569647 -0.00016451099 -0.00035686108 
Loop time of 885.898 on 1 procs for 2000000 steps with 256 atoms

Pair  time (%) = 5.88007 (0.663741)
Neigh time (%) = 29.9969 (3.38604)
Comm  time (%) = 4.25537 (0.480345)
Outpt time (%) = 0.205361 (0.0231811)
Other time (%) = 845.561 (95.4467)

Nlocal:    256 ave 256 max 256 min
Histogram: 1 0 0 0 0 0 0 0 0 0
Nghost:    96 ave 96 max 96 min
Histogram: 1 0 0 0 0 0 0 0 0 0
Neighs:    13 ave 13 max 13 min
Histogram: 1 0 0 0 0 0 0 0 0 0

Total # of neighbors = 13
Ave neighs/atom = 0.0507812
Neighbor list builds = 157158
Dangerous builds = 5207
#	run			10000
	unfix			1
	uncompute		myKE
	uncompute		myPE
	uncompute		myStress
	uncompute		flux
	uncompute		myDis
	unfix			JJ

	next seed
	next iseed
jump lmp.in.gk loop_seed
