
#------------ NVE rescale ---------------------------------------------------------------------

	velocity 		all create ${T_run} ${seed} rot yes dist gaussian
	velocity 		all create 2.6455576526946114058 ${seed} rot yes dist gaussian
	velocity 		all create 2.6455576526946114058 11111 rot yes dist gaussian

	fix 			1 all nve
	fix 			2 all temp/rescale 1 ${T_run} ${T_run} 0.01 1.0
	fix 			2 all temp/rescale 1 2.6455576526946114058 ${T_run} 0.01 1.0
	fix 			2 all temp/rescale 1 2.6455576526946114058 2.6455576526946114058 0.01 1.0
	timestep		${dt}
	timestep		0.0020000000000000000416
	thermo_style  		custom step temp press etotal vol
	thermo			1000
	run             	200000
Memory usage per processor = 2.13486 Mbytes
Step Temp Press TotEng Volume 
       0    2.6455577 0.0024007508   -1.5687558    279726.26 
    1000    2.6455577 0.0021188114    3.0574281    279726.26 
    2000    2.6455577 0.0022061211    3.1332868    279726.26 
    3000    2.6470213 0.0021695965    3.1654168    279726.26 
    4000    2.6421233 0.0021993423    3.1485971    279726.26 
    5000    2.6462327 0.0020862562    3.1635473    279726.26 
    6000    2.6390681 0.0022137354    3.1628677    279726.26 
    7000    2.6482362 0.0023247734    3.1657406    279726.26 
    8000     2.641648 0.0023243534    3.1836632    279726.26 
    9000    2.6425046 0.0022998575    3.1800179    279726.26 
   10000    2.6433656 0.0022315401    3.2102245    279726.26 
   11000    2.6390005 0.0023374462    3.2252423    279726.26 
   12000    2.6547094 0.0021613416    3.2417311    279726.26 
   13000    2.6434582 0.0021901445    3.2411806    279726.26 
   14000    2.6516753 0.0022891855    3.2584016    279726.26 
   15000    2.6524541 0.0022292118    3.2285863    279726.26 
   16000    2.6440394  0.002255335    3.2594429    279726.26 
   17000    2.6377555 0.0022982125     3.259758    279726.26 
   18000    2.6362877 0.0022721731    3.2774945    279726.26 
   19000    2.6489622 0.0022896856    3.3079898    279726.26 
   20000     2.649949 0.0024693827    3.2775699    279726.26 
   21000    2.6415517 0.0022100116    3.2944809    279726.26 
   22000    2.6500359 0.0022301459    3.2967147    279726.26 
   23000    2.6423938 0.0021809104    3.2820261    279726.26 
   24000    2.6455035 0.0022059079    3.3128402    279726.26 
   25000    2.6359475 0.0024821752    3.2967566    279726.26 
   26000    2.6478347 0.0022297851    3.3576565    279726.26 
   27000    2.6413337       0.0023     3.389136    279726.26 
   28000    2.6420502 0.0022591329    3.4053403    279726.26 
   29000     2.643859 0.0023538079    3.4051464    279726.26 
   30000     2.644102 0.0022997518    3.4061795    279726.26 
   31000    2.6464376 0.0022537949    3.4208155    279726.26 
   32000     2.638035 0.0022775787    3.4210636    279726.26 
   33000    2.6486859 0.0022431015    3.4220498    279726.26 
   34000     2.648801 0.0024220833    3.4520879    279726.26 
   35000    2.6437969 0.0022778394    3.4666369    279726.26 
   36000    2.6378268 0.0023932701    3.4663038    279726.26 
   37000    2.6490966 0.0022911366    3.4817723    279726.26 
   38000    2.6414132  0.002395699    3.4823131    279726.26 
   39000    2.6504222 0.0023321822    3.4667138    279726.26 
   40000    2.6414306 0.0022893754     3.512906    279726.26 
   41000    2.6411842 0.0024207326     3.513334    279726.26 
   42000    2.6363624 0.0022773447    3.5280817    279726.26 
   43000    2.6387806 0.0023438754    3.5127788    279726.26 
   44000    2.6501515 0.0024482621    3.5330069    279726.26 
   45000    2.6456031 0.0023201002    3.5628348    279726.26 
   46000    2.6474631 0.0022345939     3.532414    279726.26 
   47000    2.6408923 0.0023318935    3.5474913    279726.26 
   48000    2.6435117 0.0024477487    3.5471174    279726.26 
   49000    2.6397781 0.0022007831    3.5776915    279726.26 
   50000    2.6462339 0.0022553634    3.5623031    279726.26 
   51000    2.6364495 0.0022918541    3.5468112    279726.26 
   52000    2.6458654  0.002382832    3.5633914    279726.26 
   53000    2.6393793 0.0022187898    3.5795691    279726.26 
   54000    2.6434219 0.0023542745    3.5954094    279726.26 
   55000    2.6462269 0.0023080438    3.6257576    279726.26 
   56000     2.645387 0.0022701235     3.612511    279726.26 
   57000    2.6496944 0.0022870199    3.6123482    279726.26 
   58000     2.641851 0.0023141217    3.6288803    279726.26 
   59000    2.6368459 0.0023928969    3.6279823    279726.26 
   60000    2.6527205 0.0023687015    3.6430244    279726.26 
   61000    2.6483344 0.0023921659    3.6579739    279726.26 
   62000     2.646298 0.0023608488    3.6733875    279726.26 
   63000    2.6518702 0.0023157275    3.6594837    279726.26 
   64000    2.6360725 0.0023760234    3.6445359    279726.26 
   65000    2.6467235  0.002270803    3.6594781    279726.26 
   66000    2.6418226 0.0023188943    3.6594791    279726.26 
   67000    2.6480753 0.0023885726    3.6744622    279726.26 
   68000    2.6460043 0.0024134394    3.6654338    279726.26 
   69000    2.6363935 0.0023501648    3.6506117    279726.26 
   70000     2.643955 0.0024023127    3.6657747    279726.26 
   71000    2.6525835 0.0023317461    3.6657761    279726.26 
   72000    2.6550139 0.0024361852    3.6819858    279726.26 
   73000    2.6486161 0.0024270944    3.6820055    279726.26 
   74000    2.6458467 0.0023457314    3.6820065    279726.26 
   75000    2.6415787 0.0024388733    3.6692105    279726.26 
   76000    2.6446468 0.0024559538    3.6971637    279726.26 
   77000    2.6528153 0.0023305767    3.7098313    279726.26 
   78000    2.6444996 0.0023691718    3.6800298    279726.26 
   79000    2.6473162 0.0024241801    3.6954252    279726.26 
   80000    2.6470474 0.0023980673     3.709545    279726.26 
   81000    2.6442807 0.0023459217    3.7094427    279726.26 
   82000    2.6478548 0.0023186533    3.7094417    279726.26 
   83000    2.6365045 0.0023797263    3.6950018    279726.26 
   84000    2.6498561 0.0023682047    3.7256436    279726.26 
   85000    2.6524762  0.002340319    3.7161831    279726.26 
   86000    2.6514555 0.0024157144    3.7311283    279726.26 
   87000    2.6438284  0.002330007    3.7179865    279726.26 
   88000    2.6422242 0.0023033983    3.7185486    279726.26 
   89000    2.6448073 0.0023180041    3.7335963    279726.26 
   90000     2.649482 0.0024222268    3.7488428    279726.26 
   91000    2.6398015 0.0023722035    3.7488432    279726.26 
   92000    2.6420654 0.0023096835    3.7337167    279726.26 
   93000    2.6468259 0.0023398013    3.7489778    279726.26 
   94000    2.6472579 0.0023629627    3.7500149    279726.26 
   95000    2.6513595 0.0023070274    3.7501009    279726.26 
   96000    2.6451873 0.0023832816    3.7503326    279726.26 
   97000    2.6404981 0.0023005228    3.7506811    279726.26 
   98000     2.641392  0.002326349     3.751019    279726.26 
   99000    2.6384717 0.0024015849    3.7513975    279726.26 
  100000    2.6428722 0.0023558274    3.7664565    279726.26 
  101000    2.6445636 0.0024006533    3.7515873    279726.26 
  102000    2.6496397 0.0023339074    3.7674355    279726.26 
  103000     2.641387 0.0024030668    3.7679594    279726.26 
  104000    2.6389465 0.0023513861    3.7529999    279726.26 
  105000    2.6508359 0.0023958656    3.7683396    279726.26 
  106000    2.6372712 0.0023214952    3.7531877    279726.26 
  107000    2.6540241 0.0023737148    3.7856352    279726.26 
  108000    2.6413879 0.0023402034    3.7856932    279726.26 
  109000    2.6471648 0.0024945802    3.8011213    279726.26 
  110000    2.6377345 0.0023429502    3.7693447    279726.26 
  111000    2.6505924 0.0023857618    3.7823767    279726.26 
  112000    2.6485394 0.0023415473    3.7829489    279726.26 
  113000     2.651893   0.00239223    3.7978063    279726.26 
  114000    2.6479089 0.0023115075    3.7818663    279726.26 
  115000     2.636799 0.0023682151    3.7818018    279726.26 
  116000     2.647403 0.0023880898    3.7968384    279726.26 
  117000     2.645864 0.0023014147    3.7967412    279726.26 
  118000    2.6512727 0.0023754448    3.7974567    279726.26 
  119000    2.6430063 0.0023611024    3.7974941    279726.26 
  120000    2.6427869 0.0023633522    3.7973604    279726.26 
  121000    2.6481472 0.0023802896    3.7973578    279726.26 
  122000    2.6500187 0.0024048154    3.7975995    279726.26 
  123000     2.648988 0.0023440096    3.7978595    279726.26 
  124000    2.6517519 0.0024576554    3.8129694    279726.26 
  125000    2.6550076 0.0023243294     3.829454    279726.26 
  126000    2.6524634 0.0023636242    3.8169054    279726.26 
  127000    2.6430482 0.0024242128    3.8016884    279726.26 
  128000     2.637277 0.0024059879    3.8015359    279726.26 
  129000    2.6416317 0.0024400686    3.8176543    279726.26 
  130000    2.6492735 0.0024126403    3.8176999    279726.26 
  131000    2.6484058 0.0023561214    3.8332385    279726.26 
  132000    2.6513749 0.0024238692    3.8332586    279726.26 
  133000    2.6487334 0.0023860422    3.8331686    279726.26 
  134000     2.646144 0.0023696926    3.8333392    279726.26 
  135000      2.64477 0.0023769256    3.8331562    279726.26 
  136000    2.6486543 0.0024688419     3.833155    279726.26 
  137000    2.6457993 0.0024316933    3.8331571    279726.26 
  138000    2.6382501 0.0023540339    3.8331566    279726.26 
  139000    2.6473091 0.0024086902    3.8491422    279726.26 
  140000    2.6490011 0.0023930156    3.8491402    279726.26 
  141000    2.6511625 0.0024024932    3.8491379    279726.26 
  142000     2.649655 0.0023566388    3.8491416    279726.26 
  143000    2.6411697  0.002382142    3.8482349    279726.26 
  144000    2.6473706 0.0023858329    3.8488936    279726.26 
  145000    2.6516133 0.0023839556    3.8532141    279726.26 
  146000    2.6497729 0.0024056002    3.8528153    279726.26 
  147000     2.651904 0.0024067791    3.8549342    279726.26 
  148000    2.6427535 0.0023739298    3.8402394    279726.26 
  149000    2.6423452 0.0024041912    3.8402402    279726.26 
  150000     2.654149 0.0024174418    3.8555081    279726.26 
  151000    2.6387814 0.0023727487    3.8413288    279726.26 
  152000    2.6481894 0.0023815174    3.8564664    279726.26 
  153000      2.65294 0.0024001566    3.8564764    279726.26 
  154000     2.638893   0.00241366    3.8401456    279726.26 
  155000    2.6493335  0.002382159    3.8401408    279726.26 
  156000    2.6448564 0.0024015312    3.8401414    279726.26 
  157000    2.6470171 0.0024684496    3.8553251    279726.26 
  158000    2.6495324 0.0023987755    3.8552123    279726.26 
  159000    2.6493316 0.0023889972    3.8567282    279726.26 
  160000    2.6417534 0.0023787875    3.8417365    279726.26 
  161000    2.6356915 0.0023530074    3.8419764    279726.26 
  162000     2.650397 0.0023907347    3.8570009    279726.26 
  163000    2.6482697 0.0023758748    3.8570016    279726.26 
  164000    2.6473008 0.0023636536    3.8569997    279726.26 
  165000    2.6510883 0.0024042498    3.8569997    279726.26 
  166000    2.6460417 0.0023921388    3.8581219    279726.26 
  167000    2.6452586 0.0024150133    3.8581215    279726.26 
  168000    2.6452848 0.0023963109     3.857238    279726.26 
  169000     2.647672 0.0024072674    3.8572387    279726.26 
  170000     2.652459 0.0024172179    3.8594909    279726.26 
  171000    2.6452789  0.002388374    3.8594909    279726.26 
  172000    2.6474703 0.0023694112    3.8587224    279726.26 
  173000    2.6365388 0.0023656793    3.8587195    279726.26 
  174000    2.6509111 0.0023893999    3.8736841    279726.26 
  175000    2.6465302 0.0023796106    3.8736843    279726.26 
  176000    2.6461919 0.0024143039    3.8746619    279726.26 
  177000    2.6459783 0.0023661828    3.8754215    279726.26 
  178000    2.6461099 0.0024221106    3.8754212    279726.26 
  179000    2.6506308 0.0024256068    3.8754182    279726.26 
  180000    2.6493023 0.0023708567    3.8769736    279726.26 
  181000    2.6417338 0.0023881405    3.8769755    279726.26 
  182000    2.6463751 0.0023717943    3.8769741    279726.26 
  183000    2.6393693 0.0023785449     3.862383    279726.26 
  184000    2.6429274 0.0023825883    3.8625255    279726.26 
  185000    2.6377772 0.0023460444    3.8636979    279726.26 
  186000    2.6441452  0.002382568    3.8788902    279726.26 
  187000    2.6482159 0.0024402005    3.8788935    279726.26 
  188000    2.6432907 0.0023826863    3.8780498    279726.26 
  189000    2.6444522 0.0024259643    3.8650322    279726.26 
  190000    2.6512579 0.0024151709    3.8806091    279726.26 
  191000    2.6434868 0.0024034147    3.8805273    279726.26 
  192000    2.6519712 0.0024154175    3.8806966    279726.26 
  193000    2.6468996 0.0024256447    3.8826943    279726.26 
  194000    2.6491529 0.0024209497    3.8683392    279726.26 
  195000    2.6422641 0.0023930942    3.8833173    279726.26 
  196000    2.6424603 0.0023697423    3.8833148    279726.26 
  197000    2.6454246 0.0023755824    3.8853246    279726.26 
  198000    2.6386214 0.0023812619    3.8731321    279726.26 
  199000    2.6501996 0.0023863846    3.8880761    279726.26 
  200000    2.6455287 0.0023969498    3.8877245    279726.26 
Loop time of 5.86306 on 1 procs for 200000 steps with 256 atoms

Pair  time (%) = 1.07469 (18.3299)
Neigh time (%) = 3.44312 (58.7257)
Comm  time (%) = 0.307515 (5.24496)
Outpt time (%) = 0.00701928 (0.11972)
Other time (%) = 1.03071 (17.5798)

Nlocal:    256 ave 256 max 256 min
Histogram: 1 0 0 0 0 0 0 0 0 0
Nghost:    73 ave 73 max 73 min
Histogram: 1 0 0 0 0 0 0 0 0 0
Neighs:    35 ave 35 max 35 min
Histogram: 1 0 0 0 0 0 0 0 0 0

Total # of neighbors = 35
Ave neighs/atom = 0.136719
Neighbor list builds = 19573
Dangerous builds = 15832
#	run             	1000
	unfix 			1
	unfix 			2

#------------ NVE -----------------------------------------------------------------------------

	fix 			1 all nve
	timestep		${dt}
	timestep		0.0020000000000000000416
	thermo_style  		custom step temp press etotal vol
	thermo			1000
	run             	100000
Memory usage per processor = 2.13486 Mbytes
Step Temp Press TotEng Volume 
  200000    2.6455287 0.0023969498    3.8877245    279726.26 
  201000     2.645627 0.0024063378    3.8877204    279726.26 
  202000    2.6476063 0.0023814189    3.8877194    279726.26 
  203000    2.6419339 0.0023579785    3.8877213    279726.26 
  204000    2.6435683 0.0024097124    3.8877162    279726.26 
  205000    2.6486083 0.0023818019    3.8877143    279726.26 
  206000    2.6374535 0.0024530065     3.887721    279726.26 
  207000    2.6459819 0.0023882054    3.8877172    279726.26 
  208000    2.6445556  0.002404986    3.8877151    279726.26 
  209000    2.6420697 0.0023611066    3.8877181    279726.26 
  210000    2.6422118 0.0024101941    3.8877157    279726.26 
  211000    2.6471233 0.0024232426    3.8877153    279726.26 
  212000    2.6448685 0.0023679229    3.8877151    279726.26 
  213000    2.6435496 0.0023846289    3.8877187    279726.26 
  214000    2.6418784 0.0023855506    3.8877175    279726.26 
  215000    2.6462663 0.0023996811    3.8877163    279726.26 
  216000    2.6461069 0.0024286687     3.887718    279726.26 
  217000    2.6482285  0.002392876    3.8877197    279726.26 
  218000    2.6406806 0.0024472255    3.8877259    279726.26 
  219000    2.6412219 0.0023838495    3.8877206    279726.26 
  220000    2.6470305  0.002405868    3.8877205    279726.26 
  221000    2.6430155 0.0023765605    3.8877221    279726.26 
  222000    2.6465887 0.0023853023    3.8877254    279726.26 
  223000     2.643841 0.0023777505    3.8877266    279726.26 
  224000    2.6422881 0.0023613311    3.8877275    279726.26 
  225000    2.6480463 0.0024455106    3.8877295    279726.26 
  226000    2.6451103 0.0024250767    3.8877273    279726.26 
  227000    2.6442052 0.0024213119    3.8877295    279726.26 
  228000    2.6385663 0.0023903208    3.8877301    279726.26 
  229000    2.6385394 0.0023967781    3.8877278    279726.26 
  230000    2.6398841  0.002433973     3.887725    279726.26 
  231000    2.6435078 0.0023881862    3.8877248    279726.26 
  232000    2.6439885 0.0023735907    3.8877278    279726.26 
  233000    2.6371394 0.0024125292     3.887724    279726.26 
  234000    2.6390491  0.002402567    3.8877214    279726.26 
  235000    2.6428329 0.0024307519    3.8877235    279726.26 
  236000    2.6369152 0.0023521593    3.8877236    279726.26 
  237000    2.6414028 0.0024337789    3.8877271    279726.26 
  238000    2.6383319 0.0025025265    3.8877333    279726.26 
  239000    2.6411334 0.0024380304    3.8877245    279726.26 
  240000    2.6452209 0.0023984974    3.8877224    279726.26 
  241000     2.644075 0.0023842483    3.8877229    279726.26 
  242000    2.6389923 0.0024118679    3.8877223    279726.26 
  243000    2.6382669 0.0024013321    3.8877209    279726.26 
  244000    2.6367762 0.0024113381    3.8877195    279726.26 
  245000    2.6419807 0.0024068532    3.8877216    279726.26 
  246000    2.6339158 0.0023736847    3.8877233    279726.26 
  247000     2.630173 0.0023785652    3.8877251    279726.26 
  248000    2.6330205  0.002394235     3.887726    279726.26 
  249000      2.63361 0.0023825332    3.8877251    279726.26 
  250000    2.6320208 0.0023784971    3.8877236    279726.26 
  251000    2.6241012 0.0023720037    3.8877252    279726.26 
  252000    2.6254899 0.0023687388    3.8877259    279726.26 
  253000    2.6261205 0.0023924943    3.8877244    279726.26 
  254000    2.6239607 0.0023620438    3.8877254    279726.26 
  255000    2.6197317 0.0023728874     3.887725    279726.26 
  256000    2.6368566 0.0023689121    3.8877262    279726.26 
  257000    2.6249209 0.0023665362    3.8877235    279726.26 
  258000    2.6287028 0.0023628944     3.887723    279726.26 
  259000    2.6201398 0.0024031309    3.8877233    279726.26 
  260000    2.6264695  0.002394665    3.8877223    279726.26 
  261000    2.6246503 0.0023823107    3.8877184    279726.26 
  262000    2.6221445 0.0024006798    3.8877178    279726.26 
  263000    2.6274124 0.0023583802    3.8877198    279726.26 
  264000    2.6219093 0.0024031286    3.8877185    279726.26 
  265000    2.6294424 0.0023996698    3.8877142    279726.26 
  266000    2.6247438 0.0023774973    3.8877177    279726.26 
  267000    2.6249236 0.0023715082    3.8877128    279726.26 
  268000    2.6206664 0.0023695442    3.8877136    279726.26 
  269000    2.6226943 0.0023621007    3.8877132    279726.26 
  270000     2.628391 0.0024127796    3.8877102    279726.26 
  271000    2.6264826 0.0023879627    3.8877138    279726.26 
  272000    2.6234334 0.0023694513    3.8877138    279726.26 
  273000    2.6228665 0.0023610763    3.8877101    279726.26 
  274000    2.6192823 0.0023664169    3.8877089    279726.26 
  275000    2.6198759  0.002379172    3.8877087    279726.26 
  276000    2.6224462 0.0023756384    3.8877105    279726.26 
  277000    2.6196213 0.0023961238    3.8877124    279726.26 
  278000    2.6177689 0.0023682522    3.8877139    279726.26 
  279000    2.6085075  0.002487607    3.8877192    279726.26 
  280000    2.6224138 0.0023764747    3.8877026    279726.26 
  281000    2.6170075 0.0023712541    3.8877133    279726.26 
  282000    2.6210517 0.0024290832    3.8877129    279726.26 
  283000    2.6203696 0.0023806818    3.8877113    279726.26 
  284000    2.6199494 0.0023709515    3.8877107    279726.26 
  285000    2.6163045 0.0023603486    3.8877086    279726.26 
  286000    2.6155102 0.0023794892    3.8877097    279726.26 
  287000     2.612578 0.0023687749    3.8877115    279726.26 
  288000     2.615401 0.0023716205    3.8877113    279726.26 
  289000    2.6139403 0.0023925956    3.8877109    279726.26 
  290000    2.6127383 0.0023706992    3.8877123    279726.26 
  291000    2.6123805 0.0023611499     3.887713    279726.26 
  292000     2.614237 0.0023698052    3.8877127    279726.26 
  293000    2.6183126 0.0023810928    3.8877148    279726.26 
  294000    2.6169803 0.0023870399    3.8877157    279726.26 
  295000    2.6230399 0.0023682215     3.887717    279726.26 
  296000    2.6127616 0.0023738267    3.8877141    279726.26 
  297000    2.6215845 0.0023754665    3.8877103    279726.26 
  298000    2.6178575 0.0023949764    3.8877082    279726.26 
  299000    2.6107557 0.0023711981    3.8877111    279726.26 
  300000     2.610818 0.0023659888    3.8877121    279726.26 
Loop time of 2.20266 on 1 procs for 100000 steps with 256 atoms

Pair  time (%) = 0.19166 (8.70131)
Neigh time (%) = 1.43772 (65.2719)
Comm  time (%) = 0.14106 (6.40408)
Outpt time (%) = 0.0035007 (0.158931)
Other time (%) = 0.428721 (19.4638)

Nlocal:    256 ave 256 max 256 min
Histogram: 1 0 0 0 0 0 0 0 0 0
Nghost:    57 ave 57 max 57 min
Histogram: 1 0 0 0 0 0 0 0 0 0
Neighs:    22 ave 22 max 22 min
Histogram: 1 0 0 0 0 0 0 0 0 0

Total # of neighbors = 22
Ave neighs/atom = 0.0859375
Neighbor list builds = 8413
Dangerous builds = 0
#	run             	10000
	unfix 			1

#------------ kappa -------------------------------------------------------------------------
log 	log_kappa_${iseed}.lammps
log 	log_kappa_1.lammps
