	reset_timestep  	0
	fix 			1 all nve
	compute   		myKE all ke/atom
	compute   		myPE all pe/atom
	compute   		myStress all stress/atom virial
	compute   		flux all heat/flux myKE myPE myStress
	variable  		Jx equal c_flux[1]/vol
	variable  		Jy equal c_flux[2]/vol
	variable  		Jz equal c_flux[3]/vol
	fix       		JJ all ave/correlate $s $p $d c_flux[1] c_flux[2] c_flux[3] type auto file J0Jt_${iseed}.dat ave running
	fix       		JJ all ave/correlate 5 $p $d c_flux[1] c_flux[2] c_flux[3] type auto file J0Jt_${iseed}.dat ave running
	fix       		JJ all ave/correlate 5 200000 $d c_flux[1] c_flux[2] c_flux[3] type auto file J0Jt_${iseed}.dat ave running
	fix       		JJ all ave/correlate 5 200000 1000000 c_flux[1] c_flux[2] c_flux[3] type auto file J0Jt_${iseed}.dat ave running
	fix       		JJ all ave/correlate 5 200000 1000000 c_flux[1] c_flux[2] c_flux[3] type auto file J0Jt_4.dat ave running
#	fix       		JJ all ave/correlate $s $p $d c_flux[1] c_flux[2] c_flux[3] type auto ave running
#	dump			JJ all custom 1000000 J0Jt.dat f_JJ[3] f_JJ[4] f_JJ[5]
	compute 		myDis all msd
	thermo_style 		custom step temp press vol c_myDis[4] v_Jx v_Jy v_Jz
	thermo			1000
	timestep		${dt}
	timestep		0.0020000000000000000416
	run			2000000
Memory usage per processor = 3.5433 Mbytes
Step Temp Press Volume myDis[4] Jx Jy Jz 
       0    2.6330513 0.0023946362    279726.26            0 -0.00046164502 1.2967358e-05 7.5785112e-05 
    1000    2.6313039 0.0024318038    279726.26     30.74652 -0.00042645257 -0.00011354703 1.4465896e-05 
    2000    2.6372636 0.0023956524    279726.26    122.40259 -0.00051850366 -0.000100797  0.000128961 
    3000    2.6359183 0.0024007146    279726.26    275.24029 -0.00048687519 -0.00017166593 0.00012578159 
    4000    2.6364008 0.0023933784    279726.26    489.91741 -0.00052096702 -0.00020950799 0.0001149913 
    5000    2.6329107 0.0023934937    279726.26     767.0986 -0.00051942572 -0.00018953527 0.00013613085 
    6000    2.6334409 0.0023984716    279726.26    1105.9645 -0.00054997864 -0.00018061981 0.00013709608 
    7000    2.6390353 0.0023927655    279726.26    1502.0807 -0.00054970695 -0.00023398834 8.8614841e-05 
    8000    2.6325785  0.002393615    279726.26    1936.8726 -0.00067272622 -0.00011050475 0.00012371211 
    9000    2.6349619 0.0023927045    279726.26    2426.3618 -0.00068449901 -0.00016207937 0.00010141394 
   10000    2.6359318 0.0024030829    279726.26      2961.95 -0.00061529816 -0.00010358007 0.00018959177 
   11000    2.6325109 0.0023940984    279726.26    3546.4245 -0.00055834313 -0.0001174426 0.00018004533 
   12000     2.632521 0.0023955042    279726.26    4190.0432 -0.00055029868 -0.00014063169 0.00023776851 
   13000    2.6329423 0.0024045316    279726.26    4888.2616 -0.00057628646 5.2235774e-06 6.2813694e-05 
   14000     2.632992 0.0023933545    279726.26    5641.5637 -0.00059143872 1.8803763e-06 4.7733644e-05 
   15000    2.6361418 0.0023885812    279726.26    6457.1348 -0.00062107777 -1.954295e-05 -3.5254922e-05 
   16000    2.6354273 0.0024150647    279726.26    7320.4013 -0.0006656096 -3.4977596e-06 -0.00011043025 
   17000    2.6325226 0.0024238931    279726.26    8232.5681 -0.00075011181 -0.00019169077 -0.00029336011 
   18000    2.6318449 0.0023955053    279726.26    9183.5726 -0.00071321045 -9.553192e-05 -8.0510487e-05 
   19000    2.6353071 0.0023964076    279726.26    10195.294 -0.0006683333 -8.4926115e-05 -0.00010389387 
   20000    2.6358763 0.0023932515    279726.26     11267.41 -0.00067050631 -8.6982412e-05 -5.6417012e-05 
   21000      2.63333 0.0023934322    279726.26    12399.235 -0.00064086614 -9.4843033e-05 -4.158331e-05 
   22000    2.6371883 0.0024136407    279726.26    13591.978 -0.00047782966 -0.00038852984 -0.00011928499 
   23000     2.636489 0.0024033573    279726.26    14838.161 -0.00047261568 -0.00052726174 -8.0214355e-05 
   24000    2.6321587  0.002394971    279726.26    16135.457 -0.00048545825 -0.00052402276 -8.6364056e-05 
   25000    2.6393048 0.0024016506    279726.26    17490.988 -0.00054904847 -0.00053257388 -1.6147211e-05 
   26000     2.637543 0.0024072965    279726.26    18889.712 -0.00051290383 -0.00056008885 -1.2151572e-05 
   27000    2.6346121 0.0023912353    279726.26    20325.074 -0.00066240003 -0.00052421701 1.5083582e-05 
   28000    2.6374499 0.0023893902    279726.26    21809.682 -0.00064844291 -0.00053002282 9.6671619e-06 
   29000    2.6390911  0.002411221    279726.26    23329.625 -0.00072762249 -0.00040215746 6.4765284e-05 
   30000     2.642287  0.002384299    279726.26    24899.457 -0.00076227796 -0.00045325357 5.5362165e-05 
   31000    2.6356719 0.0023880496    279726.26    26516.069 -0.00078911571 -0.00049178425 7.7606959e-05 
   32000    2.6335994 0.0023992674    279726.26    28190.011 -0.0007824122 -0.00046645858 9.2046774e-05 
   33000    2.6338167 0.0023936388    279726.26     29916.13 -0.00082740806 -0.00050122136 8.0091127e-05 
   34000    2.6335175 0.0023926529    279726.26    31644.439 -0.0008150713 -0.00061550136 5.9477827e-05 
   35000    2.6353904 0.0023933088    279726.26     33407.59 -0.00070919347 -0.00060302957 2.3713412e-05 
   36000    2.6366468 0.0023923155    279726.26    35203.123 -0.00070871233 -0.00055900753 -3.4246197e-06 
   37000    2.6375322 0.0023878951    279726.26    37053.327 -0.00074873773 -0.00054752194 4.464783e-05 
   38000     2.634842 0.0023918301    279726.26    38954.176 -0.00072648605 -0.00051866865 5.3192642e-05 
   39000    2.6401751 0.0024058268    279726.26      40911.4 -0.00077218302 -0.00046772683 1.4657582e-05 
   40000     2.633338 0.0023932131    279726.26    42917.871 -0.00077667097 -0.00045105637  3.08306e-06 
   41000    2.6381825 0.0023935801    279726.26    44985.513 -0.00074288633 -0.00045048363 -1.1320506e-05 
   42000    2.6374945 0.0024069787    279726.26    47105.494 -0.00074926977 -0.00047982292 -7.2056641e-06 
   43000    2.6361476 0.0023915668    279726.26    49254.698 -0.00081978431 -0.0004394654 -5.4732637e-05 
   44000    2.6343817 0.0024077528    279726.26    51433.472 -0.00078781339 -0.00046473088 -8.1332562e-05 
   45000    2.6342267 0.0024073082    279726.26    53671.998 -0.00076212207 -0.00047008927 -3.5747158e-05 
   46000    2.6329099 0.0023937488    279726.26    55970.327 -0.00078906359 -0.0005268527 -5.7692588e-05 
   47000    2.6347731  0.002391152    279726.26    58307.201 -0.00072643643 -0.00053532873 -8.3218697e-06 
   48000    2.6166166 0.0025495172    279726.26     60666.44 -0.00074838825 0.00050852488 0.00097261062 
   49000    2.6333248 0.0023942096    279726.26    63009.332 -0.00051520078 -0.00050237153 -0.00021447114 
   50000    2.6330743 0.0023929921    279726.26    65411.674 -0.00051006246 -0.00046633491 -0.0001935383 
   51000    2.6359162 0.0023920026    279726.26    67859.154 -0.00051178748 -0.00053688587 -0.0001440992 
   52000    2.6309379  0.002483421    279726.26    70332.182 -0.00020199344 -0.00061730093 -0.00021184669 
   53000    2.6368815 0.0023911883    279726.26    72837.766 -0.00048030949 -0.00055647252 -0.00016622282 
   54000    2.6387759 0.0023911973    279726.26    75364.855 -0.00045999293 -0.00048908482 -0.00020584589 
   55000    2.6349914 0.0024045342    279726.26    77928.915 -0.00042962159 -0.00047911894 -0.00020353663 
   56000    2.6322417 0.0023948926    279726.26    80538.547 -0.00050845889 -0.00055402826 -0.00014627674 
   57000    2.6325861 0.0023940746    279726.26    83148.744 -0.00056328507 -0.0006841681 -0.00017428579 
   58000    2.6344034 0.0024200259    279726.26    85773.278 -0.00057540883 -0.00062590811 -0.00013845611 
   59000    2.6366135 0.0023912258    279726.26    88435.139 -0.00055487592 -0.00069629792 -0.00020241632 
   60000    2.6343927 0.0023947656    279726.26    91135.384 -0.00056226412 -0.00065258719 -0.00020671737 
   61000    2.6368012 0.0023936591    279726.26     93882.49 -0.00054900779 -0.00069895899 -0.00015695915 
   62000    2.6316351 0.0024293226    279726.26    96655.713 -0.00057305245 -0.00067582762 -0.0001504769 
   63000    2.6310688 0.0023954293    279726.26      99445.7 -0.00054140477 -0.00067891495 -0.0001315604 
   64000    2.6330528 0.0023983411    279726.26    102271.53 -0.00062243454 -0.00064959814 -0.00015690463 
   65000    2.6320725  0.002395039    279726.26    105133.56 -0.00053140811 -0.0005233428 -0.00012862655 
   66000    2.6325006 0.0023929291    279726.26    108016.15 -0.00043373108 -0.00041835016 -0.00018885035 
   67000    2.6339905 0.0023918455    279726.26    110946.06 -0.00048601114 -0.00043171931 -0.00015809481 
   68000    2.6308344 0.0023965698    279726.26    113927.94 -0.00047047365 -0.00042309205 -0.00017054078 
   69000    2.6338058 0.0024209677    279726.26    116958.94 -0.00051085789 -0.00041865322 -0.00015590858 
   70000    2.6311877 0.0023955171    279726.26    120023.54 -0.00053002154 -0.00043663193 -0.00015366114 
   71000    2.6368369 0.0023932964    279726.26    123088.48 -0.0004296864 -0.00041542816 -0.000145243 
   72000    2.6333137 0.0023919703    279726.26    126142.58 -0.00045522582 -0.00039512955 -0.0001071416 
   73000    2.6307466 0.0023963501    279726.26    129224.88 -0.00044842197 -0.00030962848 -0.00012316778 
   74000    2.6323514 0.0023943472    279726.26    132267.79 -0.00037223907 -0.00026149419 -0.00017203011 
   75000    2.6335915 0.0023956376    279726.26    135333.17 -0.00038907257 -0.00031340067 -0.00015974318 
   76000    2.6356809 0.0023918412    279726.26    138405.31 -0.00030005476 -0.00047438162 -0.0002550925 
   77000    2.6308525 0.0023961617    279726.26    141470.46 -0.00030723254 -0.00042321415 -0.00023641814 
   78000    2.6351709 0.0023927988    279726.26    144561.16 -0.0003395962 -0.00039373375 -0.00020751125 
   79000     2.630448  0.002397218    279726.26     147692.7 -0.00034772821 -0.00036656985 -0.00020279643 
   80000    2.6323452 0.0023936389    279726.26    150855.38 -0.00036264136 -0.0003114811 -0.00010633968 
   81000    2.6311804 0.0023953609    279726.26    154001.38 -0.00038082319 -0.00028201053 -8.6818968e-05 
   82000    2.6358098 0.0024074265    279726.26    157137.57 -0.00053704109 -0.0003913604 6.6032643e-05 
   83000    2.6347092 0.0023938221    279726.26    160258.29 -0.00046370562 -0.00050684795 6.5085106e-05 
   84000     2.632675 0.0024184692    279726.26    163392.72 -0.00028034115 -0.00045409884 -6.3046764e-05 
   85000     2.632843 0.0023927289    279726.26    166441.89 -0.00042281389 -0.00050997664 5.173804e-05 
   86000    2.6313663 0.0024284924    279726.26     169482.2 -0.00038574743 -0.00051239578 0.00010410968 
   87000    2.6310696 0.0023962771    279726.26    172492.41 -0.00039459432 -0.00049325676 6.819076e-05 
   88000    2.6337393 0.0023997388    279726.26    175525.42 -0.00038727715 -0.0005351101 8.9056754e-05 
   89000    2.6323247 0.0023943645    279726.26     178531.6 -0.00030168051 -0.00055233443 0.00017807824 
   90000    2.6380283 0.0024043321    279726.26    181542.12 -0.00032254509 -0.00054720612 0.00017846343 
   91000    2.6318508 0.0023945134    279726.26    184561.13 -0.00026482465 -0.00054797803 0.00016224706 
   92000    2.6278992 0.0024429993    279726.26    187624.99 -0.00023395997 -0.0006348618 0.00019850642 
   93000    2.6317675 0.0023943494    279726.26    190751.32 -0.00027445791 -0.00059612847 0.00021774069 
   94000    2.6343522 0.0023981672    279726.26    193917.49 -0.00027620965 -0.00060304021 0.0002024227 
   95000    2.6346748 0.0023945214    279726.26    197098.29 -0.00028664255 -0.00051405535 0.00020362416 
   96000    2.6323544 0.0023943275    279726.26    200315.54 -0.00030295538 -0.00057418796 0.00021555028 
   97000    2.6315908 0.0024214356    279726.26    203559.28 -0.00036231062 -0.00052753035 0.00015691938 
   98000    2.6365015 0.0024081633    279726.26    206830.13 -0.00046655032 -0.00052915611 0.0002209861 
   99000    2.6339826 0.0023927753    279726.26    210103.29 -0.00061994975 -0.00058598691 0.00016821347 
  100000    2.6340072 0.0023983155    279726.26    213362.69 -0.00055125841 -0.00059439955 0.00016898608 
  101000     2.634795 0.0023906725    279726.26    216606.98 -0.00044267249 -0.00072951982 0.00020178014 
  102000    2.6370711  0.002390619    279726.26    219874.28 -0.00044933037 -0.00071310293 0.00018746216 
  103000    2.6265653 0.0024559545    279726.26    223191.99 -0.00044222621 -0.00070117514 0.00017560217 
  104000    2.6322314 0.0023939251    279726.26    226520.39 -0.00045847654 -0.00076590252 0.0001798604 
  105000    2.6322218 0.0023938516    279726.26    229888.73 -0.0004443414 -0.00079162944 0.00026238217 
  106000    2.6347886 0.0023919892    279726.26    233252.55 -0.0004872231 -0.00075471362 0.00032623758 
  107000    2.6350853 0.0024117213    279726.26    236543.92 -0.00055587966 -0.00075352129 0.00029647098 
  108000    2.6343324 0.0023935702    279726.26    239809.24 -0.00052239306 -0.00079369139 0.00026035975 
  109000    2.6340593 0.0023907614    279726.26    243115.89 -0.00046530591 -0.00078876177 0.00023217123 
  110000    2.6341949 0.0023940777    279726.26    246440.94 -0.00035750202 -0.00081694129 0.00014600845 
  111000    2.6328714 0.0024064816    279726.26    249652.08 -0.00037865181 -0.00074312423 0.00017151152 
  112000    2.6358875 0.0023966448    279726.26    252893.66 -0.00036361312 -0.00075552506 0.00021602155 
  113000     2.631796 0.0023946738    279726.26    256174.22 -0.00040399469 -0.00075076129 0.00025460948 
  114000    2.6320284  0.002394616    279726.26    259476.25 -0.00049965456 -0.00070816293 0.00027923903 
  115000    2.6375779 0.0023993229    279726.26    262798.15 -0.00043703773 -0.00068359963 0.0002441876 
  116000    2.6324103 0.0023930574    279726.26    266122.35 -0.00043841295 -0.00066884719 0.00021946055 
  117000    2.6352242 0.0024153912    279726.26    269489.79 -0.0003563373 -0.00054920957 0.00027917908 
  118000    2.6370524  0.002391359    279726.26    272901.09 -0.00032624131 -0.00053017558 0.00039969781 
  119000    2.6325551 0.0023948846    279726.26    276351.97 -0.00032501134 -0.00053617391 0.0004125794 
  120000    2.6380396 0.0024014338    279726.26    279864.08 -0.00021636153 -0.00055230532 0.00053290591 
  121000    2.6324101 0.0023933175    279726.26    283430.21 -0.00023906489 -0.00061851792 0.00054185527 
  122000    2.6331614 0.0023926517    279726.26    286986.51 -0.00020434795 -0.00053768198 0.00042425826 
  123000    2.6340608 0.0023972655    279726.26    290563.66 -0.00027115636 -0.00055691362 0.00033986257 
  124000    2.6370539 0.0023913047    279726.26    294174.15 -0.00021767218 -0.0005179695 0.00036237771 
  125000    2.6306782 0.0023968575    279726.26    297844.03 -0.00025838713 -0.00053653847 0.00036812802 
  126000    2.6330663 0.0023931476    279726.26    301575.08 -0.00028921708 -0.00048457654 0.00032381189 
  127000    2.6325862 0.0024146651    279726.26    305366.34 -0.00032953459 -0.0004777222 0.00026653951 
  128000     2.638536 0.0023940813    279726.26    309191.08 -0.00029700673 -0.00047402877 0.00021919934 
  129000    2.6336592 0.0023911835    279726.26    312928.25 -0.00031309266 -0.00042928752 0.00015489706 
  130000    2.6332667 0.0023971251    279726.26     316649.4 -1.7860627e-05 -0.00035093034 0.00019564392 
  131000    2.6317072 0.0023950313    279726.26    320326.75 -0.00020847958 -0.00041057292 0.00020035964 
  132000    2.6333616 0.0023937895    279726.26    323960.31 -0.00017581806 -0.00044357131 0.00014696229 
  133000    2.6342954 0.0023986234    279726.26     327562.9 -0.00015789849 -0.00044534734 0.00014558014 
  134000    2.6324432   0.00239381    279726.26    331175.76 -0.0001312947 -0.00045864119 0.00010973415 
  135000    2.6283191 0.0024398108    279726.26    334804.65 -9.0593108e-05 -0.00060507587 -3.1300449e-05 
  136000    2.6321971 0.0023947283    279726.26    338469.56 -7.29942e-05 -0.0003775913 8.6736292e-05 
  137000    2.6321269 0.0024237019    279726.26    342193.72 -0.0001651062 -0.00037385991 4.8176398e-05 
  138000    2.6335553 0.0023972466    279726.26    345929.77 -7.0823846e-05 -0.00035267974 0.00010005538 
  139000    2.6365937   0.00239224    279726.26    349642.28 -6.1007432e-05 -0.00029526423 8.5502178e-05 
  140000    2.6363367 0.0024092409    279726.26    353318.32 -4.2937995e-05 -0.0002777229 9.0828687e-05 
  141000     2.634291 0.0023943333    279726.26    357084.29 -0.00011090189 -0.00038303279 4.092042e-05 
  142000    2.6333354  0.002393367    279726.26     360900.9 -6.4314648e-05 -0.00037451491 6.1001159e-05 
  143000    2.6340633 0.0023920577    279726.26    364726.76 -5.4653507e-05 -0.00037428073 9.0163769e-05 
  144000    2.6352299 0.0023958731    279726.26    368575.21 -0.00021379013 -0.00034100192 0.00011404326 
  145000    2.6309497 0.0023962722    279726.26    372457.53 -0.00022602603 -0.00034399127 3.9038493e-05 
  146000    2.6392028 0.0023887687    279726.26    376363.75 -0.00022495932 -0.00028769328 0.00010869328 
  147000    2.6350844 0.0023995967    279726.26    380312.25 -0.00028058998 -0.00032202157 0.0001338092 
  148000    2.6312314 0.0023955749    279726.26    384247.65 -0.00028153822 -0.00030673304 0.0002004715 
  149000    2.6340652 0.0024043105    279726.26    388162.03 -0.00031394662 -0.000361824 0.00016276739 
  150000    2.6321801 0.0023944886    279726.26    392101.73 -0.00034456245 -0.00030521721 0.00015359361 
  151000    2.6331185 0.0024057289    279726.26    396069.76 -0.00036654588 -0.00028653824 0.00017759003 
  152000    2.6350064 0.0024390943    279726.26    400093.49 -0.00047004834 -0.00032718055 4.1874932e-05 
  153000    2.6307413 0.0023960219    279726.26    404139.83 -0.00032799168 -0.00029875946 0.00011936811 
  154000    2.6332823 0.0023919615    279726.26    408108.37 -0.00020866464 -0.00041267175 0.00020661975 
  155000    2.6313698 0.0023949599    279726.26    411981.84 -3.8692556e-05 -0.00043012059 0.00021926395 
  156000    2.6338875 0.0024013007    279726.26    415854.73 -1.8131264e-06 -0.00045123756 0.00016511622 
  157000    2.6317317 0.0023945313    279726.26    419737.33 1.3054193e-05 -0.00056650302 0.00021808537 
  158000    2.6378506 0.0023945205    279726.26    423643.66 2.5720975e-06 -0.00052173619 0.00019464926 
  159000    2.6339614 0.0023947502    279726.26    427589.07 -5.3099373e-05 -0.00048070947 0.00025381554 
  160000    2.6349908 0.0024101275    279726.26    431427.57 -4.178675e-05 -0.00048783412 0.00029109285 
  161000    2.6319875 0.0023937058    279726.26    435229.97 -0.00020461619 -0.00048203711 0.00041196674 
  162000    2.6290242 0.0024435698    279726.26    439047.75 -0.0001828372 -0.00051462243 0.00049117885 
  163000    2.6304857 0.0023973021    279726.26    442871.11 -0.00024142379 -0.00045790237 0.00042504406 
  164000    2.6333451   0.00239243    279726.26    446757.63 -0.00024237395 -0.00044263917 0.00042142819 
  165000     2.632559 0.0024155644    279726.26     450644.2 -0.00031578099 -0.00036647084 0.00045850419 
  166000    2.6319014 0.0023947635    279726.26    454510.01 -0.0002747965 -0.00051474488 0.00049544323 
  167000    2.6334664 0.0023987682    279726.26    458250.63 -0.00024807053 -0.00036241516 0.00059459855 
  168000    2.6308165 0.0023960158    279726.26    461991.08 -0.00013575193 -0.00047409388 0.00064206846 
  169000    2.6327524 0.0023936059    279726.26    465777.05 -0.00012858985 -0.0004831123 0.00064184733 
  170000    2.6311648 0.0023951802    279726.26    469651.55 -0.00014329608 -0.00046469707 0.00067221656 
  171000    2.6263675 0.0024587725    279726.26    473582.42 -0.00019714144 -0.00047686912 0.0005142621 
  172000    2.6304297 0.0023970456    279726.26    477561.88 -0.00017488876 -0.00043937625 0.00069097979 
  173000    2.6364528 0.0023919788    279726.26    481543.98 -0.00022969135 -0.00039356457 0.00058546414 
  174000     2.633783 0.0023943661    279726.26    485504.07 -0.0003133793 -0.00050698849   0.00051408 
  175000    2.6322754 0.0024450807    279726.26    489457.27 -0.00023593611 -0.00043399353 0.0004595156 
  176000    2.6359291 0.0023975472    279726.26    493419.18 -0.00034560786 -0.00039885932 0.00045046429 
  177000    2.6328169 0.0023934124    279726.26    497446.03 -0.00039234397 -0.00040516377 0.00057571307 
  178000    2.6339923 0.0023915456    279726.26    501544.62 -0.00039167829 -0.00043713365 0.00062566334 
  179000    2.6320419 0.0023952604    279726.26     505705.2 -0.00040580711 -0.00027975923 0.00062951765 
  180000    2.6309143  0.002396496    279726.26    509844.62 -0.00041812954 -0.00033055118 0.00066197779 
  181000    2.6327267 0.0023923656    279726.26    513960.28 -0.00034834118 -0.00031917252 0.00070319572 
  182000     2.622292 0.0024806543    279726.26    518118.53 -0.00037136935 -0.00025546923 0.00087507857 
  183000    2.6307326 0.0023968903    279726.26    522192.71 -0.000422198 -0.00016377246 0.00073441881 
  184000    2.6312248 0.0023958016    279726.26    526286.95 -0.00038870422 -0.00023794402 0.00074938491 
  185000    2.6307068 0.0024305291    279726.26    530408.54 -0.00025216455 0.00013287677 0.00081263263 
  186000    2.6304282 0.0023972737    279726.26    534533.25 -0.00050613829 -0.00014291717 0.00071699663 
  187000    2.6336504 0.0023922618    279726.26    538711.27 -0.00052642601 -0.00013992865 0.00071956155 
  188000    2.6328206  0.002394417    279726.26    542851.45 -0.00045696734 7.7448899e-05 0.00051637649 
  189000    2.6318422 0.0023944431    279726.26    546855.47 -0.00044325512 9.9402103e-05 0.00054307359 
  190000    2.6349248 0.0023990831    279726.26     550878.6 -0.00042475334 0.00011320707 0.00062666994 
  191000    2.6323313 0.0023937379    279726.26    554938.14 -0.0004200618 0.00010465583 0.00060497461 
  192000    2.6306833 0.0023968247    279726.26    558990.23 -0.00031651832 8.6165109e-05 0.00061013085 
  193000    2.6332432 0.0023928094    279726.26    563093.39 -0.00025951707 0.00010701968 0.0005762579 
  194000    2.6324613 0.0023932543    279726.26    567244.69 -0.00028367989 8.3381338e-05 0.00060494276 
  195000    2.6332365 0.0024050695    279726.26    571432.73 -0.00028786937 3.5428336e-05 0.00049932331 
  196000    2.6334515 0.0024202646    279726.26    575635.09 -0.00034108934 0.00015778126 0.0004798539 
  197000     2.630651 0.0023966494    279726.26     579878.8 -0.00033761681 0.00016761695 0.0003593001 
  198000    2.6341311 0.0023936312    279726.26     584188.1 -0.00037795793 0.00022363999 0.00031930166 
  199000     2.632295 0.0023941222    279726.26    588544.75 -0.00029373323 0.00026337396 0.00028252382 
  200000    2.6314221 0.0023955054    279726.26    592773.22 -0.00023127784 0.00026349583 0.00021963048 
  201000    2.6337753 0.0023933838    279726.26    596830.84 -0.00017603042 0.00041989361 4.7610895e-05 
  202000    2.6322707  0.002393938    279726.26       600871 -0.0001322479 0.00052994037 0.00014259674 
  203000    2.6351544 0.0023918055    279726.26    604975.93 -3.7556219e-05 0.00052858862 0.0001621696 
  204000    2.6330398 0.0023929395    279726.26    609120.38 -2.2557451e-05 0.00050587812 0.00015776556 
  205000    2.6309991 0.0023963658    279726.26    613310.49 -4.3107718e-06 0.0004991477 0.00014575193 
  206000    2.6317572 0.0023948153    279726.26    617563.92 7.9845265e-05 0.00051496476 4.2410013e-05 
  207000    2.6306878 0.0023966889    279726.26    621878.81 0.00010799977 0.00046286774 5.9970211e-05 
  208000    2.6317328 0.0023943192    279726.26    626236.86 0.00011330735 0.00043688015 5.5682488e-05 
  209000     2.630927 0.0023960561    279726.26    630623.46 4.649985e-05 0.00045648206 0.00013855361 
  210000    2.6329077 0.0023929275    279726.26    635050.82 5.3525061e-05 0.00042051833 0.00018102585 
  211000    2.6322411 0.0023945971    279726.26    639503.17 5.4339868e-05 0.0004462703 0.0001829461 
  212000    2.6349238 0.0023904082    279726.26    644001.45 -3.3729064e-06 0.00046773808 0.00024391823 
  213000    2.6341503 0.0023917795    279726.26    648547.91 2.8790925e-05 0.00039293536 0.00025106339 
  214000    2.6313888 0.0023950329    279726.26    653076.65 3.517593e-05 0.00029781857 0.00030162684 
  215000    2.6307361 0.0023964862    279726.26    657555.84 0.00010573441 0.00024324247 0.00035038699 
  216000    2.6310534 0.0023961247    279726.26    662064.44 0.00011257059 0.00023094185 0.00032917279 
  217000    2.6349607  0.002391188    279726.26    666633.56 0.00015613926 0.00020731538 0.00029580941 
  218000    2.6336563 0.0023948983    279726.26    671241.29 0.00022885247 0.00026244952 0.00026410744 
  219000    2.6305091 0.0023969881    279726.26    675870.07 0.00016404675 0.00026103609 0.00021810101 
  220000    2.6355152 0.0023895865    279726.26    680545.61 0.00022378253 0.00024291906 0.00024488099 
  221000    2.6329201  0.002392896    279726.26     685265.8 0.00025242214 0.00027878791 0.00020747408 
  222000    2.6376776 0.0023862561    279726.26    690048.22 0.00023931904 0.00029086276 0.00020798924 
  223000    2.6318328 0.0023942791    279726.26     694896.7  0.000217915 0.00019772859 0.00020145274 
  224000    2.6317415  0.002395064    279726.26    699825.15 0.00012668659 8.5382986e-05 0.00017022414 
  225000    2.6310256 0.0023959631    279726.26     704717.9 0.00016753097 0.00010512004 0.00024239735 
  226000    2.6331708 0.0023928278    279726.26    709586.29 0.0003489532 0.00013711947 4.4244048e-05 
  227000    2.6327998 0.0023948639    279726.26    714409.02 0.00043074022 0.00032867533 8.2617515e-05 
  228000    2.6335713   0.00240751    279726.26     719245.2 0.00042958629 0.00032644853 0.00011322001 
  229000    2.6333955 0.0023937756    279726.26    724000.94 0.0002616081 0.00019525527 1.2740546e-05 
  230000    2.6340371 0.0024052743    279726.26     728760.3 0.00030094007 0.00011805701 -5.7108432e-05 
  231000    2.6311014 0.0023955976    279726.26    733536.31 0.00032343398 0.00017574144 5.0202915e-05 
  232000    2.6312919 0.0023958115    279726.26    738348.25 0.00028228051 0.00025192853 2.1618115e-05 
  233000    2.6323543 0.0023945865    279726.26    743174.33 0.00026337531 0.00025356709 1.7971553e-05 
  234000    2.6371594  0.002404556    279726.26     748039.5 0.00025518657 0.00022882288 7.0402941e-05 
  235000    2.6352253 0.0023906418    279726.26     752917.1 0.00025152798 0.00023718953 4.1454061e-05 
  236000    2.6348214  0.002391724    279726.26    757650.46 0.00017399822 0.00022499219 2.3978293e-05 
  237000    2.6316201 0.0023948999    279726.26     762361.3 0.00024536693 0.00021915018 -2.2014833e-05 
  238000    2.6324435 0.0023942562    279726.26    767002.84 0.00030075019 0.00032793826 -1.8514594e-05 
  239000    2.6324838 0.0023936661    279726.26    771616.28 0.00027954247 0.00033608622 -7.731003e-06 
  240000    2.6324995 0.0023958286    279726.26    776235.43 0.00027710417 0.00027370837 9.685884e-06 
  241000    2.6328643 0.0023934479    279726.26     780874.2 0.00029158887 0.00023898782 7.7108478e-06 
  242000     2.630536 0.0024401659    279726.26    785525.96 0.00033365083 0.00026807524 1.0843966e-05 
  243000     2.632393  0.002393668    279726.26    790183.95 0.00034013703 0.00029914485 -3.7740919e-05 
  244000    2.6329723 0.0023923693    279726.26     794880.3 0.0003463695 0.0002918738 -8.1367761e-05 
  245000     2.635106 0.0024091646    279726.26    799555.67 0.00016976053 0.00029159479 -3.7734712e-05 
  246000    2.6353541 0.0024125067    279726.26    804234.15 6.9790611e-05 0.00034434977 0.00021474949 
  247000    2.6329674 0.0023933918    279726.26    809010.04 4.5578804e-05 0.00036614657 0.00021436856 
  248000    2.6331662  0.002401984    279726.26    813827.57 6.6586428e-05 0.00035166523 0.00024579013 
  249000     2.631429 0.0024190983    279726.26    818738.24 4.6065732e-05 0.00028778973 0.00030557645 
  250000    2.6336121 0.0023928486    279726.26    823721.88 0.00011375047 0.00037144465 0.00030878833 
  251000    2.6312053 0.0023955338    279726.26     828729.3 0.00018916408 0.00036855438 0.00026855119 
  252000    2.6345321 0.0023937791    279726.26    833784.23 0.00024801126 0.00025568316 0.00020854985 
  253000    2.6316207 0.0023947674    279726.26       838852 0.00022167539 0.0002437365 0.00027192717 
  254000    2.6337973 0.0023987844    279726.26    843972.67 0.00014718105 0.00018914406 0.00022564186 
  255000    2.6306169 0.0023969013    279726.26    849106.47 8.3468123e-05 0.00022610364 0.00023489385 
  256000    2.6308202 0.0023962061    279726.26    854201.47 4.2527791e-05 0.00026324671 0.00016235451 
  257000    2.6358599 0.0023976502    279726.26    859327.98 0.00018525158 0.00020513396 0.00017668769 
  258000    2.6390181 0.0024155721    279726.26    864459.11 -3.1025007e-05 0.00012328229 0.00019648565 
  259000    2.6327342 0.0023933768    279726.26    869453.78 0.00011849269 0.00014955911 0.00019386616 
  260000    2.6323737  0.002393776    279726.26    874261.25 7.1646119e-05 0.0001778619 0.00021961088 
  261000    2.6360824 0.0023982397    279726.26    879059.64 3.2092077e-05 0.00017293143 0.00019185919 
  262000    2.6309479 0.0023962504    279726.26    883881.28 3.4561146e-06 0.00016371316 0.00013072209 
  263000    2.6390002 0.0023881428    279726.26    888776.34 -2.35274e-05 0.00012991774 0.00018727013 
  264000    2.6319371 0.0023942767    279726.26    893689.51 -2.0548898e-05 0.00010961993 0.00019457323 
  265000    2.6328819 0.0023931149    279726.26    898686.65 -6.1980164e-05 0.00015467321 0.00014941504 
  266000    2.6321547  0.002394559    279726.26    903700.43 -3.9764392e-05 0.00017190172 0.00017414337 
  267000    2.6305922 0.0023967037    279726.26    908752.54 -3.84891e-05 0.0001868333 0.00019723257 
  268000     2.631737 0.0023948329    279726.26    913792.49 -0.00016422768 0.00017464597 0.00022595267 
  269000    2.6305558  0.002396769    279726.26    918772.82 -6.3369729e-05 0.00026588171 0.00021046201 
  270000    2.6307637 0.0023964252    279726.26    923694.73 -8.5584564e-05 0.00023063432 0.00023798946 
  271000    2.6324354 0.0024107461    279726.26    928627.28 -3.9846533e-05 0.00020114117 0.00022702598 
  272000    2.6310174 0.0023958761    279726.26    933514.79 -0.00012606587 0.00023281627 0.00033005304 
  273000    2.6307843 0.0023964825    279726.26    938282.66 -0.00015676976 0.00025302184 0.00034179989 
  274000    2.6328554 0.0023926899    279726.26    943064.27 -0.00023778497 0.00035274229 0.00039209734 
  275000    2.6360144 0.0024024243    279726.26    947885.68 -0.00025303992 0.00041901923 0.0003338357 
  276000    2.6326776 0.0024110554    279726.26    952691.73 -0.00037234498 0.00043279395 0.00028565824 
  277000    2.6324418 0.0023933684    279726.26    957501.61 -0.00018790897 0.00040790644 0.00036435327 
  278000    2.6320424  0.002394631    279726.26    962352.49 -0.00016622174 0.00036141736 0.00042613646 
  279000    2.6337438 0.0023916799    279726.26    967171.25 -0.00017993711 0.00037597613 0.00044755228 
  280000    2.6331665 0.0023937455    279726.26    972076.31 -0.00013802665 0.00028445676 0.00042657323 
  281000    2.6327672 0.0023943724    279726.26    977014.48 -0.00010089166 0.00025584727 0.00033031004 
  282000    2.6316361 0.0023948451    279726.26    981981.21 -6.6739308e-05 0.00012877939 0.00027047656 
  283000    2.6331648 0.0023922619    279726.26    986914.43 -5.1525094e-05 9.8671469e-05 0.0002754639 
  284000    2.6312829 0.0023949309    279726.26    991789.48 4.4410057e-05 -0.0001232369 0.00011587429 
  285000    2.6318995 0.0023933587    279726.26       996529 8.3186551e-05 -0.00011529559 0.00010356504 
  286000    2.6346485 0.0023932845    279726.26    1001372.1 0.00011814247 -6.183077e-05 8.7255739e-05 
  287000    2.6390116 0.0024012218    279726.26    1006213.3 -1.8879804e-05 7.9966022e-05 6.797352e-05 
  288000    2.6333789 0.0023954962    279726.26    1010899.7 9.3494767e-05 0.00013421438 0.00015510131 
  289000    2.6391644 0.0024141538    279726.26    1015613.4 1.1334786e-06 0.00013549526 6.3525866e-05 
  290000    2.6327685 0.0023933188    279726.26    1020351.5 0.00024307736 -5.955754e-05 0.00010620737 
  291000    2.6306185 0.0023964117    279726.26    1024908.7 0.00019074945 -6.0267872e-05 0.00012924645 
  292000    2.6345551 0.0023956121    279726.26    1029504.9 0.00020230828 5.2836101e-05 0.00017648153 
  293000    2.6339403 0.0023997621    279726.26    1034123.7 0.00017892419 0.00014237597 0.00011627179 
  294000    2.6347984 0.0024007456    279726.26    1038797.2 0.00014842486 0.00013969964 0.00013347789 
  295000    2.6331823 0.0023919364    279726.26      1043435 0.00012296438 0.00021415659 0.00016714438 
  296000    2.6349713  0.002390248    279726.26      1048040 0.00010736274 0.00024900157 0.00020867721 
  297000    2.6310681 0.0023954108    279726.26    1052657.5 0.00014718547 0.00019702323 0.00018056419 
  298000     2.633128 0.0023928335    279726.26    1057306.8 0.00013856619 0.00021912294 0.00022669032 
  299000    2.6325423 0.0023934975    279726.26    1061960.5 0.00011894136 0.00010070015 5.1410987e-05 
  300000    2.6320928 0.0023944147    279726.26      1066565 -7.1660629e-05 7.1620725e-05 1.5883507e-05 
  301000    2.6304527 0.0023970368    279726.26    1071160.6 -2.6705237e-05 0.00017112767 -3.041765e-06 
  302000    2.6375656 0.0023918062    279726.26    1075720.3 4.9399984e-05 0.00013863589 6.1859984e-06 
  303000    2.6318591 0.0023946445    279726.26    1080161.9 1.5458914e-05 0.00023042085 0.0001439957 
  304000    2.6380212 0.0023911623    279726.26    1084570.2 3.3733208e-05 0.00026471062 0.00017293352 
  305000    2.6374926 0.0023943369    279726.26      1088970 2.3817434e-05 0.00027604789 0.00017619432 
  306000     2.633942 0.0023921219    279726.26    1093216.9 -4.3655816e-05 0.00017664037 0.00014849127 
  307000    2.6338783 0.0023933996    279726.26      1097412 -3.9491868e-05 0.00018584614 0.00012367223 
  308000    2.6336885 0.0024113561    279726.26    1101634.2 -9.2058739e-05 0.00015797412 9.7687325e-05 
  309000    2.6330579  0.002395619    279726.26    1105950.5 1.1526333e-05 3.449791e-05 -3.4713929e-05 
  310000    2.6303706  0.002397422    279726.26    1110336.5 3.5361224e-05 4.5498635e-05 -1.1806105e-05 
  311000    2.6352477 0.0023937082    279726.26    1114708.9 5.0218745e-05 -8.095905e-05 -2.7184457e-05 
  312000    2.6307684  0.002396504    279726.26      1118994 -5.8436699e-05 3.4240975e-05 -1.6005061e-06 
  313000    2.6348835 0.0024045527    279726.26      1123305 -9.0533864e-05 4.0531703e-05 -7.4524518e-06 
  314000    2.6313778 0.0023955057    279726.26      1127615 -6.5438955e-05 0.00010888287 -3.1689525e-05 
  315000    2.6341307 0.0023908759    279726.26    1131902.1 -4.5724823e-05 8.9059185e-05 -5.6344231e-05 
  316000     2.634282  0.002390793    279726.26    1136216.4 -4.4932244e-05 9.9127981e-05 -5.0521041e-05 
  317000    2.6340576 0.0023943973    279726.26    1140586.4 -9.8641421e-05 0.00010307534 -0.00011835142 
  318000    2.6339382 0.0024025947    279726.26    1144987.3 -1.0608476e-05 0.00014910175 -0.00015757677 
  319000    2.6339325  0.002391062    279726.26    1149394.7 -7.658389e-05 0.0001670016 -0.00015515092 
  320000    2.6315915 0.0023948655    279726.26    1153866.1 -6.8461621e-05 0.00013785786 -0.00013924557 
  321000     2.630701 0.0023963776    279726.26    1158394.8 -5.9772792e-05 0.00017866952 -0.00017182842 
  322000    2.6313113 0.0023956287    279726.26    1162955.9 -0.00011069224 0.00015418637 -0.00020166987 
  323000    2.6310922 0.0023957516    279726.26    1167586.3 -0.00016119474 0.00011739948 -0.00022756026 
  324000    2.6344228 0.0023953082    279726.26    1172278.9 -0.00020690216 0.00014969076 -0.00016919702 
  325000    2.6329721 0.0024070544    279726.26    1176963.7 -0.00025990798 0.00020251545 -0.00029223899 
  326000    2.6327382 0.0023936389    279726.26    1181706.2 -0.0002740117 0.0001920226 -0.00025399575 
  327000    2.6361916 0.0023887373    279726.26      1186534 -0.000255805 0.0001580494 -0.00030411846 
  328000    2.6339159 0.0023975782    279726.26    1191367.6 -0.00032465677 0.00015875877 -0.00025336999 
  329000    2.6338502 0.0023920468    279726.26    1196236.2 -0.00038190777 5.8650835e-05 -0.00020846566 
  330000    2.6351751 0.0023901375    279726.26    1201151.7 -0.0003762657 -7.6188389e-06 -0.0001813622 
  331000    2.6338345 0.0023914166    279726.26    1206125.9 -0.00039470467 -3.8626528e-05 -0.00016779246 
  332000    2.6317107 0.0023944744    279726.26    1211109.6 -0.00039302329 -9.4362024e-05 -0.0002103951 
  333000    2.6342931 0.0023961079    279726.26      1216138 -0.00039228003 -6.4298161e-05 -0.00022882839 
  334000    2.6334216 0.0023913426    279726.26    1221229.2 -0.00043589945 -9.0383259e-05 -0.00028082442 
  335000    2.6346846 0.0024008416    279726.26    1226281.3 -0.00039547921 -1.9161904e-05 -0.00032922581 
  336000    2.6345068 0.0024031195    279726.26    1231313.5 -0.00043588225 -7.996985e-05 -0.00037529026 
  337000     2.630499  0.002396716    279726.26    1236278.9 -0.00046018743 -0.00010345453 -0.00032610777 
  338000    2.6337409  0.002392622    279726.26    1241166.6 -0.00044025109 -3.3283798e-05 -0.00032142136 
  339000    2.6356398 0.0023967189    279726.26    1246111.6 -0.00040146175 -4.7820363e-05 -0.00035973356 
  340000    2.6329009 0.0024061404    279726.26    1251082.3 -0.000356003 -4.2767679e-05 -0.0003362109 
  341000    2.6323647 0.0023934136    279726.26    1256096.4 -0.00033285241 -5.6354381e-05 -0.00032577962 
  342000    2.6312159 0.0023953565    279726.26    1261141.8 -0.00035952788 -5.6379811e-05 -0.00033636879 
  343000    2.6336163 0.0023969596    279726.26    1266211.8 -0.00038603803 -2.7697644e-05 -0.00032351522 
  344000    2.6311583 0.0023959698    279726.26    1271270.9 -0.00037469421 -2.5970498e-05 -0.00027118269 
  345000    2.6322298  0.002394091    279726.26      1276353 -0.00037492696 -2.1179187e-05 -0.00027315213 
  346000    2.6365825 0.0024075705    279726.26    1281457.1 -0.00054641469 6.7269853e-05 -0.00013010567 
  347000    2.6335622 0.0024157109    279726.26    1286540.5 -0.00050226974 4.4846517e-05 -0.00018327439 
  348000    2.6367316 0.0024026957    279726.26    1291598.5 -0.00042802314 7.4468051e-05 -0.00011465649 
  349000    2.6314083 0.0023956888    279726.26    1296693.2 -0.00046907603 3.3354064e-05 -0.00026054279 
  350000    2.6344921 0.0023907166    279726.26    1301826.9 -0.00041081902 8.7444404e-05 -0.00026398184 
  351000    2.6334016 0.0024012291    279726.26      1306885 -0.00047076351 3.4780201e-05 -0.00030732552 
  352000    2.6325319 0.0024314943    279726.26    1311932.9 -0.00064845911 -0.00014431961 -0.00032153641 
  353000    2.6363594 0.0023900038    279726.26    1317016.4 -0.0004940067 -3.2720588e-05 -0.0003681928 
  354000    2.6331085 0.0023926557    279726.26    1322085.2 -0.0003783047 7.152024e-05 -0.00043727913 
  355000    2.6352369  0.002416924    279726.26      1327151 -0.00036463832 0.00013284404 -0.00046403977 
  356000    2.6362898 0.0023949603    279726.26    1331916.7 -0.00039229393 0.00017625528 -0.00031858153 
  357000     2.633603 0.0024344819    279726.26    1336540.6 -0.0003950845 3.6274152e-05 -0.00027820483 
  358000    2.6314499 0.0023947495    279726.26      1341127 -0.00041580531 3.6563851e-05 -0.00016697417 
  359000    2.6368069 0.0024001946    279726.26    1345700.6 -0.00040754149 -4.1486974e-05 -0.00020579756 
  360000    2.6405793 0.0023863172    279726.26    1350250.2 -0.00039484497 -7.6848286e-05 -0.00025109302 
  361000    2.6372806 0.0023898513    279726.26    1354757.8 -0.00052482291 -5.5629791e-05 -0.00018333127 
  362000    2.6310526  0.002395674    279726.26    1359279.2 -0.00049603424 3.8969901e-06 -0.00011402065 
  363000    2.6309715 0.0024336941    279726.26    1363817.5 -0.00043556292 7.9108993e-05 -0.00026278206 
  364000    2.6309525 0.0023960623    279726.26    1368277.3 -0.00047450696 2.3846385e-05 -0.00018368625 
  365000    2.6344139 0.0023995219    279726.26    1372735.7 -0.0003977822 6.5263604e-05 -0.00015526174 
  366000     2.631568   0.00239543    279726.26    1377226.9 -0.00036934849 7.5161149e-05 -0.0001250873 
  367000    2.6320479 0.0023945259    279726.26    1381807.2 -0.00022446632 8.7806064e-05 -2.8852406e-05 
  368000    2.6306724 0.0023961812    279726.26    1386325.2 -0.00023444792 0.00012800771 -2.8396586e-05 
  369000    2.6326015  0.002420975    279726.26    1390755.8 -0.00010980304 0.00012512215 -0.00014514044 
  370000    2.6386165 0.0023894818    279726.26    1394856.9 -0.00017650381 0.0001332533 -0.00010780077 
  371000    2.6343012 0.0023925524    279726.26    1398980.5 -0.00019324381 0.00019291512 -0.00011079402 
  372000     2.633485 0.0023921051    279726.26    1403011.6 -0.00012310809 8.8002668e-05 -0.00010669055 
  373000    2.6309405 0.0023961858    279726.26    1407048.5 -8.3353012e-05 8.2274539e-05 -0.00013306561 
  374000    2.6371552 0.0023896841    279726.26    1411132.6 -5.1178548e-05 6.7289453e-05 -0.00014846652 
  375000      2.63256 0.0023947601    279726.26    1415282.8 -6.522023e-05 4.6947002e-05 -0.00014510858 
  376000    2.6350492 0.0023909694    279726.26    1419451.1 -4.118297e-05 4.6406462e-05 -0.00015091185 
  377000    2.6352451 0.0024040173    279726.26    1423587.3 -7.3418139e-05 5.2862562e-05 -0.0001530182 
  378000    2.6357869 0.0023981961    279726.26      1427709 -0.00011345692 3.3032098e-05 -0.00018384487 
  379000    2.6354088  0.002403512    279726.26    1431804.8 -5.0726524e-05 6.5720374e-05 -0.00025413318 
  380000    2.6332514 0.0023932422    279726.26    1435940.7 -0.00015552189 0.00014522508 -0.00019088258 
  381000     2.631549  0.002395612    279726.26    1440129.6 -0.00012319622 0.00012670035 -0.00016823181 
  382000    2.6323732 0.0023931801    279726.26    1444369.1 -0.00012144113 0.00013396866 -0.0001342051 
  383000    2.6353035 0.0023959689    279726.26    1448610.9 -0.00024081385 0.00011914768 9.5487216e-07 
  384000    2.6314742 0.0023949683    279726.26    1452923.6 -0.00033288703 9.4666035e-05 4.7630421e-05 
  385000    2.6308746 0.0023966021    279726.26      1457227 -0.00035677582 0.00010642986 3.9076392e-05 
  386000    2.6347107 0.0023989951    279726.26    1461532.5 -0.0003378711 0.00013992678 9.2736077e-06 
  387000    2.6333575 0.0023927735    279726.26    1465885.8 -0.00039886817 0.0001674229 2.9658118e-05 
  388000    2.6364698 0.0023936678    279726.26    1470344.2 -0.000457783 0.00026023851 1.5223515e-05 
  389000    2.6370459 0.0023918233    279726.26    1474568.2 -0.00050413851 0.00041539087 5.5487097e-05 
  390000    2.6344522 0.0023944033    279726.26    1478781.9 -0.0005059987 0.00045114199 6.4624699e-05 
  391000     2.631803 0.0023946259    279726.26    1483070.3 -0.00049829016 0.00045927019 4.5883304e-05 
  392000    2.6314831 0.0023951198    279726.26    1487395.1 -0.00044366527 0.0004182533 0.00024741126 
  393000    2.6340672  0.002446942    279726.26    1491728.8 -0.00052615447 0.00039006461 0.00038175512 
  394000    2.6345482 0.0023938896    279726.26    1496155.2 -0.00031885244 0.00033431525 0.00021802469 
  395000    2.6328403 0.0023932324    279726.26    1500662.5 -0.0003249104 0.00033064124 0.00019038522 
  396000    2.6339379 0.0023939677    279726.26    1505143.8 -0.0003547422 0.00034008027 0.00013918361 
  397000    2.6309868 0.0023958482    279726.26    1509614.5 -0.00033980015 0.00028015695 0.00018044451 
  398000    2.6319959 0.0023946305    279726.26    1514062.2 -0.00036787951 0.00021950675 0.00017433963 
  399000    2.6309427 0.0023960528    279726.26    1518453.2 -0.00031144582 0.00018084787 0.00024351542 
  400000    2.6308954 0.0023958865    279726.26    1522868.1 -0.00026067894 0.00017995118 0.00022964828 
  401000    2.6336326 0.0023965728    279726.26    1527342.2 -0.00021649884 0.00019382055 0.00021878354 
  402000    2.6314497 0.0023945987    279726.26    1531899.5 -0.00024245567 0.00019273421 0.00014121879 
  403000    2.6316823 0.0023944563    279726.26    1536534.1 -0.00023277893 0.00017893818 0.00015753374 
  404000    2.6322768 0.0023950745    279726.26    1541233.1 -0.00024627658 0.00017772076 0.00017307968 
  405000    2.6325071 0.0023929153    279726.26      1545790 -0.00021107416 0.00025451677 0.00013782997 
  406000    2.6329729 0.0023933039    279726.26    1550225.2 -0.00017774142 0.0001930795 0.00010474948 
  407000    2.6361978 0.0024020727    279726.26    1554736.5 -0.00018006246 0.00028276227 0.00022954796 
  408000    2.6331789 0.0023922665    279726.26    1559310.9 -9.2627779e-05 0.00027627374 0.00019911824 
  409000    2.6319559 0.0023947708    279726.26    1563947.1 -8.8034134e-05 0.00029640675 0.00017537884 
  410000    2.6309798 0.0023958539    279726.26    1568636.5 -0.00017090698 0.00032215911 2.3694441e-05 
  411000    2.6309902 0.0023954974    279726.26    1573321.8 -0.00014721001 0.00028568963 0.0001336619 
  412000    2.6308001 0.0023961782    279726.26    1578121.4 -7.5341177e-05 0.00026401102  4.60021e-05 
  413000    2.6323484 0.0023947527    279726.26    1583000.4 -6.2778127e-05 0.00027165845 6.4197301e-05 
  414000    2.6291623 0.0024414653    279726.26      1587741 -0.00024221414 0.0004754107 9.6987572e-05 
  415000    2.6341684 0.0023917146    279726.26    1592241.9 -8.6672727e-05 0.00032097454 -1.3132476e-05 
  416000     2.639888  0.002393413    279726.26    1596814.8 -4.3334674e-05 0.00025687118 -3.5073849e-05 
  417000    2.6326882 0.0023938005    279726.26    1601423.7 -5.4927042e-05 0.00024269402 -4.8416463e-05 
  418000    2.6368302 0.0023930837    279726.26    1605759.5 0.00017188567 0.00028505142 -9.3029889e-05 
  419000    2.6340083 0.0023907415    279726.26    1610024.2 0.00012617447 0.00018126863 -5.5874358e-05 
  420000    2.6340496  0.002391425    279726.26    1614212.7 0.00011470881 0.00013568426 -5.2825883e-05 
  421000    2.6323357 0.0023939727    279726.26    1618486.3 0.00014152255 6.4330729e-05 -5.36109e-05 
  422000    2.6314099 0.0023950379    279726.26    1622810.5 0.00014068709 7.0253231e-05 -8.7681991e-05 
  423000    2.6346196 0.0023928556    279726.26    1627178.1 0.00011851933 4.0118914e-05 -1.6971898e-05 
  424000    2.6345362 0.0024013182    279726.26    1631535.1 0.0001210693 4.1705702e-05 -1.4680525e-05 
  425000    2.6327549 0.0023942096    279726.26    1635925.2 0.00012222707 4.3604063e-05 -1.5579026e-05 
  426000    2.6319225 0.0023950191    279726.26    1640351.4 0.00011109941 5.7498159e-05 -3.6691211e-05 
  427000    2.6342807 0.0023913149    279726.26    1644773.5 9.8991936e-05 -4.6423314e-06 -3.4142623e-05 
  428000    2.6367734 0.0024008465    279726.26    1649171.1 0.00014664165 -4.1968842e-05 -8.0242168e-05 
  429000    2.6360281 0.0024041301    279726.26    1653509.6 1.343794e-05 9.5528709e-05 1.8946994e-05 
  430000    2.6348848 0.0023889868    279726.26    1657932.6 4.5444635e-05 2.6461646e-05 -3.4548411e-05 
  431000    2.6337264 0.0023975273    279726.26    1662466.9 7.7699899e-05 5.7637926e-05 4.1221615e-05 
  432000    2.6326576 0.0023938104    279726.26    1666930.2 -2.1279143e-05 -8.6621074e-06 2.2900503e-05 
  433000    2.6327643 0.0023928368    279726.26    1671268.3 2.1944548e-05 -2.7648371e-05 3.0724835e-05 
  434000    2.6353844 0.0023985629    279726.26    1675596.1 0.00014906831 -3.9187397e-05 1.5357182e-05 
  435000     2.633611 0.0023991225    279726.26    1679983.4 0.00013063086 -5.2033202e-05 2.0087393e-05 
  436000    2.6331196  0.002408034    279726.26    1684344.1 -1.9116143e-05 -0.000234559 -7.963385e-05 
  437000    2.6365025 0.0023880332    279726.26    1688686.8 -0.00010831628 -0.00029426063 -0.00010574521 
  438000    2.6354989 0.0023900589    279726.26    1692840.6 7.3425952e-05 -0.00051455029 -0.0003456404 
  439000    2.6326161 0.0023933279    279726.26      1696852 6.8299921e-05 -0.00050270379 -0.00032463514 
  440000    2.6310271 0.0023957725    279726.26    1700798.7 0.00024880503 -0.00047885451 -0.00026986912 
  441000    2.6336327 0.0023913081    279726.26    1704654.5 0.00025123136 -0.00049930247 -0.00026073116 
  442000    2.6324578 0.0023934907    279726.26    1708549.8 0.00031182529 -0.00045176388 -0.0003010605 
  443000    2.6328892  0.002392793    279726.26    1712392.9 0.00045373451 -0.00052948045 -0.00042994711 
  444000     2.630865 0.0023960355    279726.26    1716198.4 0.00060701668 -0.00050319045 -0.00039857429 
  445000     2.634019 0.0024201594    279726.26    1720014.4 0.00053003046 -0.00046563427 -0.00040314591 
  446000    2.6304238 0.0024444198    279726.26    1723936.9 0.00052381282 -0.00029679176 -0.00040211044 
  447000     2.632915 0.0024092021    279726.26    1727835.7 0.00049002656 -0.00043882613 -0.00031111687 
  448000    2.6323117  0.002393551    279726.26    1731773.9 0.00053083798 -0.00039587877 -0.00021778197 
  449000    2.6310518  0.002395593    279726.26    1735688.1 0.0006596883 -0.00031434526 -0.00018266117 
  450000    2.6353119 0.0023934775    279726.26    1739660.9 0.00060383299 -0.00033698028 -0.00020807405 
  451000    2.6309541 0.0023960222    279726.26    1743631.8 0.00050742447 -0.00036590123 -0.00018194039 
  452000    2.6330402 0.0024097823    279726.26    1747637.7 0.00049511578 -0.00034768859 -0.00032544967 
  453000    2.6342656 0.0023908994    279726.26    1751634.2 0.00052897512 -0.000330807 -0.00028264118 
  454000    2.6317109 0.0023943921    279726.26    1755511.6 0.00049628974 -0.00030432234 -0.00039764846 
  455000    2.6310007 0.0023956764    279726.26    1759386.5 0.00054063359 -0.00030292786 -0.00038962858 
  456000    2.6365976 0.0023902869    279726.26    1763275.6 0.00046837764 -0.00037975546 -0.00037756196 
  457000    2.6304619 0.0023969594    279726.26    1767033.8 0.00038780493 -0.00033732375 -0.00038458323 
  458000     2.632669 0.0023954037    279726.26    1770787.9 0.00036680992 -0.00034073063 -0.00035295988 
  459000    2.6376606 0.0023914267    279726.26    1774530.6 0.00046634537 -0.00034613595 -0.00040460651 
  460000    2.6318056 0.0023945855    279726.26    1778182.8 0.00043909196 -0.00032258449 -0.00038528899 
  461000    2.6316686 0.0023949384    279726.26    1781951.1 0.00037502631 -0.00013214906 -0.00045785591 
  462000    2.6315046 0.0023949759    279726.26    1785725.8 0.00041329254 -0.00019805233 -0.00038431143 
  463000    2.6335162 0.0024045196    279726.26      1789460 0.00044152975 -0.00025689057 -0.00035865646 
  464000    2.6310253 0.0023960309    279726.26    1793162.7 0.00043892619 -0.00032498818 -0.00025553701 
  465000    2.6320557 0.0023945697    279726.26    1796933.9 0.0004268041 -0.00033742458 -0.00028360483 
  466000    2.6349585 0.0023936959    279726.26    1800558.8 0.00042673482 -0.00034222129 -0.00025059436 
  467000    2.6348819 0.0023965714    279726.26    1804184.6 0.00045354557 -0.00032987544 -0.00022048903 
  468000    2.6363115 0.0023901494    279726.26      1807787 0.00045747492 -0.00033163041 -4.1709486e-05 
  469000    2.6349918 0.0024170662    279726.26    1811397.5 0.00042314627 -0.00039075602 -0.00012373001 
  470000    2.6393319 0.0023967558    279726.26    1815019.9 0.00043457079 -0.00051690796 -0.00014676825 
  471000    2.6344859 0.0023948573    279726.26    1818676.5 0.0003810029 -0.00049593852 -0.00016533645 
  472000    2.6400699 0.0023937869    279726.26    1822383.7  0.000351237 -0.00044752471 -0.00020482784 
  473000     2.631113 0.0023956274    279726.26    1826271.5  0.000355308 -0.00046842227 -0.00018642987 
  474000    2.6333611 0.0023928128    279726.26    1830231.3 0.00032942116 -0.00045357301 -0.0001556247 
  475000    2.6355666 0.0024267211    279726.26    1834218.9 0.00033870232 -0.0005251169 -0.00023244591 
  476000    2.6344041 0.0023939648    279726.26      1838196 0.00040376949 -0.00047873838 -0.00024574469 
  477000     2.634405 0.0024169744    279726.26    1842200.2 0.00046523227 -0.00060272336 -0.0002000003 
  478000    2.6363548 0.0023945138    279726.26    1846137.4 0.00053528316 -0.000612409 -0.0002632964 
  479000    2.6333219 0.0024014436    279726.26    1849977.9 0.00055329663 -0.00066153824 -0.00026499003 
  480000    2.6331885 0.0024044919    279726.26    1853882.1 0.00062877766 -0.00069012843 -0.00028882446 
  481000    2.6338949 0.0024000473    279726.26    1857846.6 0.0006316463 -0.00068223175 -0.00029833729 
  482000    2.6340159 0.0023931448    279726.26    1861916.8 0.00058318565 -0.0006672893 -0.00035146956 
  483000    2.6356354 0.0023908145    279726.26    1865945.1 0.00053894651 -0.00065401962 -0.0003367871 
  484000    2.6329236 0.0023950719    279726.26    1869944.4 0.00056716427 -0.0006612594 -0.00032716273 
  485000    2.6363794 0.0024115764    279726.26      1873997 0.0005543212 -0.00059464033 -0.0003666522 
  486000    2.6377971 0.0024022248    279726.26      1878033 0.00061961258 -0.00052928552 -0.0004578429 
  487000    2.6373421 0.0024033926    279726.26    1882057.1 0.00060778407 -0.00057850603 -0.00044692991 
  488000    2.6351153 0.0023990899    279726.26    1885953.8 0.00060952031 -0.00062071769 -0.00046082154 
  489000    2.6333991 0.0024041952    279726.26      1889781 0.00058692299 -0.00058002926 -0.00042335714 
  490000    2.6363265 0.0024002343    279726.26    1893444.6 0.00048424685 -0.00056201053 -0.00035530086 
  491000    2.6349595 0.0023977928    279726.26    1897036.9 0.00040558055 -0.00055123207 -0.00037968862 
  492000    2.6346645 0.0023941539    279726.26      1900703 0.00040941315 -0.00068033081 -0.00037960739 
  493000    2.6242682 0.0024995795    279726.26    1904453.5 0.00036159263 -0.00081737123 -0.00089659045 
  494000    2.6373268 0.0023887506    279726.26    1908035.9   0.00028039 -0.00065077267 -0.00039672396 
  495000    2.6340056 0.0023935632    279726.26    1911700.1 0.00020983851 -0.00067293225 -0.00035049502 
  496000    2.6348774 0.0023916026    279726.26    1915434.3 0.00030220914 -0.00074024444 -0.0002963573 
  497000    2.6363368  0.002392681    279726.26    1919132.6 0.00031020274 -0.00077145581 -0.00035470304 
  498000    2.6354095 0.0023930815    279726.26    1922817.1 0.00034266856 -0.00078850078 -0.00042209893 
  499000    2.6392526 0.0023951212    279726.26    1926465.7 0.00035819706 -0.00049601106 -0.00036512884 
  500000    2.6354649 0.0024153122    279726.26    1930032.4 0.00024720363 -0.00051306925 -0.00027914959 
  501000    2.6341719 0.0023983598    279726.26    1933551.3 0.00017818136 -0.00051746639 -0.00022091442 
  502000    2.6341415 0.0023945859    279726.26    1937086.3 0.00015298234 -0.00048426121 -0.00019501875 
  503000    2.6367348 0.0023914924    279726.26    1940685.1 8.7725427e-05 -0.00044731746 -0.00021015916 
  504000    2.6391081 0.0023941943    279726.26    1944342.2 9.5251323e-05 -0.00037474817 -0.00030481726 
  505000    2.6388394 0.0024179065    279726.26    1948030.1 6.8068122e-05 -0.00034567864 -0.00030046857 
  506000    2.6388485 0.0024023007    279726.26    1951709.6 0.0001130277 -0.00037219572 -0.00031931754 
  507000    2.6383244 0.0024034426    279726.26    1955367.6 0.00014355098 -0.00043092123 -0.0002454298 
  508000    2.6350266 0.0023954811    279726.26    1958958.2 7.2826072e-05 -0.00043414418 -0.00025974069 
  509000     2.635815 0.0023915543    279726.26    1962542.5 0.00015326364 -0.00040923069 -0.00053696934 
  510000    2.6330275  0.002395064    279726.26    1966223.2 0.00029686703 -0.00042573392 -0.00072001018 
  511000    2.6338105 0.0023946614    279726.26    1969937.1 0.00032310186 -0.00045401335 -0.00072467908 
  512000    2.6348405 0.0024180983    279726.26    1973830.5 0.00043920364 -0.00046474749 -0.00065836493 
  513000    2.6328944 0.0024042286    279726.26    1977818.9 0.00031363709 -0.00056064132 -0.00063073755 
  514000    2.6357542 0.0023986498    279726.26    1981773.9 0.00023038173 -0.00061715173 -0.00072655196 
  515000    2.6354069 0.0023937382    279726.26    1985736.5 0.00023022635 -0.00062539579 -0.00073959076 
  516000    2.6332155  0.002395152    279726.26      1989724 0.00023913222 -0.00054467111 -0.00066066766 
  517000    2.6354987  0.002394392    279726.26    1993780.6 0.00010517077 -0.0004779937 -0.00064510653 
  518000    2.6342892 0.0023959027    279726.26    1997839.2 9.3144211e-05 -0.00047940444 -0.00074737939 
  519000    2.6372144 0.0024064004    279726.26    2001888.7 8.9326339e-05 -0.00056990484 -0.00077055101 
  520000    2.6367875 0.0024004136    279726.26    2005824.8 4.1798274e-05 -0.00056662154 -0.0007861178 
  521000     2.633964 0.0024247843    279726.26    2009724.5 7.6719398e-05 -0.00048699063 -0.0008410438 
  522000    2.6361343 0.0024083701    279726.26    2013607.1 0.00012557346 -0.000496708 -0.00098279683 
  523000    2.6381738 0.0023897643    279726.26      2017684 1.7435141e-05 -0.00055021832 -0.0008863781 
  524000    2.6354937 0.0023941653    279726.26    2021838.8 6.9578407e-05 -0.00059047105 -0.00090874111 
  525000    2.6412196 0.0023977113    279726.26    2025966.6 3.7500336e-05 -0.00059695654 -0.00082467455 
  526000    2.6369146  0.002399069    279726.26    2030175.4 -3.0527225e-05 -0.0005445285 -0.00084120356 
  527000    2.6350991 0.0023961802    279726.26    2034446.2 -0.00013373035 -0.0006490489 -0.00071443831 
  528000    2.6384248 0.0023912257    279726.26    2038674.4 -4.7227549e-05 -0.00069956133 -0.0005932334 
  529000    2.6356039  0.002404425    279726.26    2042795.9 -2.7455109e-05 -0.0006818509 -0.00056855071 
  530000    2.6358771 0.0024011755    279726.26    2047086.5 -5.577893e-05 -0.00063235342 -0.00051573389 
  531000    2.6377247 0.0023968445    279726.26    2051365.4 -9.756674e-05 -0.00063019187 -0.00050495106 
  532000    2.6377235 0.0023983902    279726.26    2055642.2 7.7918748e-06 -0.00056911221 -0.00055076157 
  533000    2.6362879 0.0023949165    279726.26    2059933.4 -0.00013884325 -0.00052294976 -0.0004784057 
  534000    2.6412049 0.0024033274    279726.26    2064034.4 -0.00016425009 -0.00055029012 -0.00052015647 
  535000     2.637832 0.0023981781    279726.26    2068167.3 -0.00017815847 -0.00048582936 -0.00050553378 
  536000    2.6364669 0.0024031116    279726.26    2072454.8 -0.00014545775 -0.00047219541 -0.00051749265 
  537000    2.6453721 0.0023993796    279726.26      2076788 -0.00017037399 -0.00052725012 -0.00049453913 
  538000    2.6417208 0.0023930137    279726.26    2081126.4 -0.00015195755 -0.00053712755 -0.00053245924 
  539000    2.6427705 0.0023954193    279726.26      2085331 -0.00020775562 -0.00057861141 -0.00057976422 
  540000    2.6436103 0.0023853856    279726.26      2089520 -0.00016989038 -0.00054191457 -0.00058663797 
  541000    2.6357791 0.0024243113    279726.26    2093848.2 -0.0001190155 -0.0005286914 -0.0006613689 
  542000    2.6386274 0.0023892715    279726.26      2098243 -0.00017168504 -0.00051169109 -0.00050825721 
  543000    2.6376387 0.0023940607    279726.26      2102617 -0.00019474756 -0.00048860836 -0.00044451321 
  544000    2.6374895 0.0023985566    279726.26    2106876.6 -0.00021821313 -0.00037697073 -0.0004399316 
  545000    2.6388586  0.002403518    279726.26    2111268.7 -0.00022419951 -0.0003963666 -0.00043688662 
  546000     2.641398 0.0024267406    279726.26    2115761.1 -0.00022845267 -0.00037799661 -0.00039098425 
  547000    2.6381115 0.0023946749    279726.26    2120312.2 -0.0002023474 -0.00035230355 -0.00046471179 
  548000    2.6367745 0.0023941971    279726.26    2125048.3 -0.0002129483 -0.00038079159 -0.00041920842 
  549000    2.6400526  0.002390533    279726.26    2129875.2 -0.00021257302 -0.00040266627 -0.00038024753 
  550000    2.6413007  0.002400863    279726.26    2134733.8 -0.00012193672 -0.00035239602 -0.000366396 
  551000    2.6395524 0.0024167494    279726.26    2139682.4 -0.00020593134 -0.00030290449 -0.00024346374 
  552000    2.6397561 0.0024024566    279726.26    2144700.4 -0.00020471624 -0.00032034663 -0.0001847691 
  553000    2.6380353 0.0023969185    279726.26    2149766.8 -0.00016956918 -0.00030367211 -0.00019808254 
  554000    2.6359016 0.0023972903    279726.26    2154791.7 -0.00014811361 -0.00033916979 -0.00016740454 
  555000    2.6360923 0.0023968271    279726.26    2159751.4 -0.00019635342   -0.0003396 -0.00020754752 
  556000    2.6355797 0.0023983235    279726.26    2164734.3 -0.00023654207 -0.00033785115 -0.00022928658 
  557000    2.6400533 0.0023991639    279726.26    2169806.3 -0.00021956933 -0.00025652727 -0.00025529783 
  558000    2.6369227 0.0024028749    279726.26    2174704.8 -0.00018237541 -0.00033400917 -0.00024575835 
  559000    2.6362999 0.0024006817    279726.26    2179545.3 -0.00020613043 -0.00033239255 -0.00027087608 
  560000    2.6366441 0.0023960434    279726.26    2184541.8 -0.00019431586 -0.00033113844 -0.00030508029 
  561000    2.6380736 0.0024139162    279726.26    2189640.9 -0.00024937356 -0.00028360814 -0.00024146828 
  562000    2.6379306 0.0023914486    279726.26    2194690.8 -0.00019650215 -0.00026920461 -0.00031797345 
  563000    2.6358846 0.0023959945    279726.26    2199783.3 -0.00020604338 -0.0002504677 -0.00020452341 
  564000    2.6365953 0.0023965284    279726.26    2204869.9 -0.00027494009 -0.00022489316 -0.00024312887 
  565000    2.6385885 0.0024031106    279726.26    2210010.8 -0.00027940006 -0.00022896447 -0.00019474509 
  566000    2.6350881 0.0024386344    279726.26      2215196 -0.00031376561 -0.00016864338 -0.00025921235 
  567000     2.641012 0.0023968815    279726.26    2220250.1 -0.0002724656 -0.00013662907 -0.00023684954 
  568000    2.6426372 0.0024110256    279726.26    2225230.6 -0.00022338634 9.5614332e-05 -0.00029282093 
  569000    2.6357518 0.0023976232    279726.26    2230102.5 -0.00032735994 2.501987e-05 -0.00035064155 
  570000    2.6369756 0.0023964024    279726.26    2234958.5 -0.00035265938 4.4128199e-05 -0.00031237904 
  571000    2.6371702 0.0023974373    279726.26    2239899.9 -0.00032578594 4.2524391e-05 -0.00030932926 
  572000    2.6384718 0.0023973072    279726.26    2244825.7 -0.00034521352 4.2269489e-05 -0.00027099998 
  573000    2.6353247 0.0023999963    279726.26    2249826.6 -0.00036355909 0.00010808633 -0.00025407383 
  574000    2.6342165   0.00239965    279726.26    2254933.9 -0.0003810194 0.00012338678 -0.00024132682 
  575000    2.6347737 0.0023950419    279726.26    2260036.5 -0.00050579435 8.5618117e-05 -0.00027117635 
  576000    2.6383684 0.0023947494    279726.26    2265100.4 -0.00049137315 -4.8176421e-05 -0.00040679109 
  577000    2.6337735 0.0023974482    279726.26    2269962.7 -0.00041024641 0.00016443892 -0.00029430713 
  578000    2.6320048 0.0024360892    279726.26    2274753.8 -0.00044691389 2.0294806e-05 -0.00015960662 
  579000    2.6335357 0.0023916574    279726.26    2279636.7 -0.0005228069 0.00017581174 -0.00042056281 
  580000    2.6323309 0.0023934446    279726.26    2284571.5 -0.00051945123 0.00025780798 -0.0003786255 
  581000    2.6366545 0.0023917393    279726.26    2289579.2 -0.00052925895 0.00027140671 -0.00048566111 
  582000     2.630824 0.0024370824    279726.26    2294585.8 -0.000369874 0.00032346199 -0.00038868973 
  583000    2.6343874 0.0023918729    279726.26    2299629.5 -0.00038284972 0.00031884009 -0.00037625971 
  584000    2.6324667 0.0023934347    279726.26      2304701 -0.00040587254 0.00023518756 -0.00034576985 
  585000    2.6308412  0.002395991    279726.26    2309785.2 -0.00034164294 0.0002653563 -0.00042561171 
  586000    2.6317766 0.0023948195    279726.26    2315028.4 -0.00044719271 0.00030044355 -0.00039474119 
  587000     2.632341 0.0023940747    279726.26    2320459.5 -0.00044065067 0.00030253312 -0.00038663225 
  588000    2.6359987 0.0023981831    279726.26    2325803.9 -0.00046112043 0.00029752826 -0.00043304397 
  589000    2.6313322 0.0023955428    279726.26      2331088 -0.00047347287 0.00030528411 -0.0004472228 
  590000    2.6348229 0.0023917985    279726.26    2336413.3 -0.00053495264 0.00035262071 -0.00048537984 
  591000    2.6341862 0.0023960297    279726.26    2341741.1 -0.00054228644 0.00036134024 -0.00043685177 
  592000    2.6361196   0.00239186    279726.26      2347164 -0.00052493204 0.00029128433 -0.00043827956 
  593000    2.6349081 0.0024242937    279726.26    2352538.7 -0.0004013174 0.00019848585 -0.00034158308 
  594000    2.6341619  0.002395904    279726.26    2357940.6 -0.00042132028 0.00041068612 -0.00041555917 
  595000    2.6343712 0.0023976404    279726.26    2363458.1 -0.00043391815 0.00041511695 -0.00039213383 
  596000    2.6316823 0.0024222504    279726.26    2368996.4 -0.00051371598 0.00038222743 -0.00041541428 
  597000    2.6329196 0.0024172236    279726.26    2374602.3 -0.00073244414 0.00054019883 -0.00050507981 
  598000    2.6334829 0.0024078403    279726.26    2380297.6 -0.00047617831 0.00040054478 -0.00059959043 
  599000    2.6345242 0.0024298651    279726.26    2385963.1 -0.00048028513 0.00043460719 -0.00062121082 
  600000     2.632915 0.0023939768    279726.26    2391522.6 -0.00045570028 0.00042740982 -0.00053073004 
  601000    2.6308018 0.0023964305    279726.26    2396888.8 -0.00032234779 0.00040083447 -0.00048637739 
  602000     2.635502 0.0023908934    279726.26    2402083.5 -0.00032859026 0.00038529186 -0.0004876054 
  603000    2.6343537 0.0023991308    279726.26    2407269.3 -0.00031394918 0.00042622751 -0.00041964168 
  604000    2.6283353 0.0024662077    279726.26    2412403.7 -0.00050525266  0.000237552 -0.00023252513 
  605000    2.6329337 0.0023927884    279726.26    2417585.6 -0.00030106516 0.00042096061 -0.00031336377 
  606000    2.6318842 0.0023946319    279726.26      2422748 -0.00034275862 0.00047944657 -0.00037014342 
  607000      2.63106 0.0023963176    279726.26    2427867.9 -0.00041677253 0.00040438127 -0.00035761687 
  608000    2.6370779 0.0024183482    279726.26    2433014.2 -0.000389667 0.00047369713 -0.00030105058 
  609000    2.6328125 0.0024290295    279726.26    2438043.1 -0.00030118907 0.00044444687 -0.00039108704 
  610000    2.6325412 0.0023932717    279726.26    2442975.1 -0.00021696168 0.00042884543 -0.00032648527 
  611000    2.6352619 0.0023976511    279726.26    2447957.4 -0.00015413253 0.00044382804 -0.00032810427 
  612000    2.6351226 0.0023916238    279726.26    2452985.7 -0.00016779695 0.0004554464 -0.00034757754 
  613000    2.6317536 0.0023950766    279726.26    2458149.3 -0.00024395521 0.00043509701 -0.00036674822 
  614000    2.6329773 0.0024073824    279726.26      2463366 -0.00024584328 0.0004586037 -0.00033723611 
  615000    2.6324777 0.0023937573    279726.26    2468515.8 -0.00027839452 0.00041548076 -0.00035943595 
  616000    2.6313028 0.0023947161    279726.26    2473651.7 -0.00029801498 0.00041168127 -0.00034344536 
  617000    2.6381469 0.0024078946    279726.26    2478714.8 -0.00032435998 0.0006261596 -0.0005280069 
  618000    2.6330974 0.0023986598    279726.26    2483692.8 -0.00023166351 0.00058261343 -0.00043962195 
  619000    2.6329953 0.0023927372    279726.26    2488629.1 -0.0002896238 0.00052445047 -0.00054768331 
  620000    2.6317464 0.0023948584    279726.26    2493530.7 -0.00028196233 0.00058284728 -0.00036271154 
  621000     2.633119 0.0023925416    279726.26    2498446.1 -0.00024392793 0.00055715778 -0.00046395271 
  622000     2.632722 0.0023936556    279726.26    2503240.3 -0.00025533874 0.0004510603 -0.00055428188 
  623000    2.6328434 0.0023935651    279726.26    2507914.5 -0.00025688612 0.00047293081 -0.00054019525 
  624000    2.6310803 0.0023959483    279726.26    2512570.9 -0.0002821012 0.00048544266 -0.00056971884 
  625000    2.6309856 0.0023957575    279726.26    2517277.3 -0.00031716054 0.00050663768 -0.00048097124 
  626000     2.635747 0.0023924987    279726.26    2521979.9 -0.00036686489 0.00045393039 -0.00050917441 
  627000    2.6330699 0.0023929179    279726.26    2526743.1 -0.00034331067 0.00044704337 -0.00047371795 
  628000     2.633469  0.002395192    279726.26      2531583 -0.00030373892 0.00041857749 -0.00048276286 
  629000    2.6322528 0.0024140777    279726.26    2536420.1 -0.00029849649 0.00037214198 -0.00049805148 
  630000    2.6250239 0.0024660001    279726.26    2541288.1 -0.00033181694 0.00043128359 -0.00055030178 
  631000     2.633116 0.0023941932    279726.26    2546035.9 -0.00030445953 0.0004322309 -0.00060114728 
  632000     2.634835  0.002398734    279726.26      2550859 -0.00023029945 0.00040570581 -0.00063465138 
  633000    2.6372555 0.0023897788    279726.26    2555749.8 -0.00010252581 0.00040034985 -0.00055108696 
  634000    2.6306756 0.0023965037    279726.26      2560569 -0.0001127332 0.00018743695 -0.00044061788 
  635000    2.6321032 0.0023937629    279726.26      2565358 -0.00013599911 0.00018734707 -0.00041461125 
  636000    2.6317461 0.0023942539    279726.26    2570171.2 -0.00013653188 0.00016928298 -0.00034375531 
  637000    2.6333405 0.0023918805    279726.26    2574961.3 -0.00012628698 0.00015701985 -0.00039850949 
  638000    2.6358511 0.0024077343    279726.26    2579757.3 -0.00016184368 0.00011625815 -0.0003470681 
  639000    2.6320236 0.0023943795    279726.26    2584489.6 -0.00019665314 9.2781937e-05 -0.00036900727 
  640000    2.6366334  0.002395858    279726.26    2589278.6 -0.00020756731 0.00013032132 -0.00035660744 
  641000    2.6325943  0.002393766    279726.26    2594051.1 -9.7662109e-05 8.2196597e-05 -0.00032884989 
  642000    2.6319713 0.0023941378    279726.26    2598826.8 -6.5148998e-05 0.00011751789 -0.00030982615 
  643000    2.6350602 0.0023948742    279726.26    2603648.6 -6.0583839e-05 0.00014538991 -0.00032018531 
  644000    2.6338371 0.0023920582    279726.26    2608466.6 -0.00011067511 0.00025829085 -0.00031489003 
  645000    2.6341919 0.0023923116    279726.26    2613356.9 -4.3889705e-05 0.0002204795 -0.00032216592 
  646000    2.6312036 0.0023956522    279726.26    2618233.5 -2.8631821e-05 0.00014240348 -0.00021304313 
  647000     2.639998 0.0024350241    279726.26    2623017.6 8.0826754e-05 0.00021520733 -0.00025362611 
  648000    2.6236838  0.002488026    279726.26    2627753.7 -0.00017704678 0.00021271669 1.2316282e-05 
  649000     2.633778 0.0024043121    279726.26    2632576.4 -9.845433e-05 0.00020678775 -7.8170265e-05 
  650000    2.6289574 0.0024540133    279726.26      2637447 -0.00016183627 0.00023500922 -0.00017785815 
  651000    2.6319998 0.0023944245    279726.26    2642236.9 -0.00010391845 6.6863894e-05 -0.00016724122 
  652000     2.631237 0.0023950968    279726.26    2646904.9 -0.00021470049 -2.3250321e-05 -0.0002299949 
  653000    2.6334683  0.002392469    279726.26    2651478.1 -0.00022812199 -3.0763732e-05 -0.00023403913 
  654000    2.6304681 0.0023969834    279726.26      2656118 -0.00030746739 1.3640226e-05 -0.00025963721 
  655000    2.6311926 0.0023953866    279726.26    2660759.9 -0.00031373984 0.00013869074 -0.0001372304 
  656000    2.6316949 0.0023951308    279726.26    2665416.5 -0.00029641714 0.00021356295 -0.0001090252 
  657000    2.6374399 0.0023922704    279726.26    2670131.8 -0.00030972795 0.00039669387 -0.00018519168 
  658000    2.6331497 0.0023934872    279726.26    2674935.2 -0.00021439231 0.00040161872 -9.3420382e-05 
  659000    2.6330908 0.0023924633    279726.26    2679756.7 -0.00023053512 0.00038914018 -0.00013370284 
  660000    2.6340682 0.0024036426    279726.26    2684440.4 -0.0001296407 0.00032846223 -0.00015408303 
  661000    2.6348563 0.0023917467    279726.26      2689079 8.1375824e-05 0.00028470164 -0.00020890649 
  662000    2.6316682 0.0023947477    279726.26      2693639 0.00012940763 0.00032095079 -0.00024518012 
  663000    2.6333245 0.0024095653    279726.26    2698188.4 0.00016237432 0.00035769201 -0.00020649346 
  664000    2.6402659 0.0024139961    279726.26    2702779.8 1.0615418e-05 0.00030672612 -0.00023993935 
  665000    2.6344558  0.002395519    279726.26    2707322.3 -2.7761574e-05 0.00026716709 -6.6962994e-05 
  666000    2.6222111 0.0024795709    279726.26    2711767.6 -1.9239887e-05 0.00039819795 5.3455443e-05 
  667000    2.6329022 0.0023941518    279726.26    2716068.7 7.8248529e-05 0.00025270076 -1.2151666e-05 
  668000    2.6329768 0.0023928489    279726.26    2720318.9 7.5636686e-05 0.00033568414 -0.00012471969 
  669000    2.6300163  0.002431853    279726.26    2724650.5 2.4031734e-05 0.00030609082 -0.00011239379 
  670000    2.6304831  0.002396838    279726.26    2729017.1 0.00010630233 0.00023628995 -0.00020825376 
  671000    2.6244412 0.0024947221    279726.26    2733332.1 0.00014163034 0.00026699875 -0.00031183991 
  672000    2.6320986 0.0023933873    279726.26    2737464.4 9.8767483e-06 0.00034275116 -0.00029511467 
  673000    2.6339132 0.0023987768    279726.26    2741581.3 -0.00014312131 0.00029256568 -0.000376272 
  674000     2.633455  0.002393156    279726.26    2745693.4 -7.7201865e-05 0.00039019983 -0.0002980471 
  675000    2.6314034  0.002395474    279726.26    2749570.8 -5.6118932e-05 0.00034129579 -0.0003078235 
  676000    2.6303059 0.0023974995    279726.26    2753419.1 -5.0915578e-05 0.00034003137 -0.00031329305 
  677000     2.631462 0.0023954705    279726.26    2757297.9 -8.9905478e-05 0.00037012373 -0.00023744775 
  678000    2.6379746 0.0023914903    279726.26    2761232.5 -2.9374022e-05 0.00039792944 -0.00023400099 
  679000     2.631845 0.0023942812    279726.26    2765218.6 -2.7066679e-05 0.00036249669 -0.00027452871 
  680000    2.6325093  0.002393877    279726.26    2769279.5 -1.7745052e-05 0.00038164301 -0.00019863114 
  681000    2.6428782 0.0023952228    279726.26    2773235.8 6.1879586e-05 0.00050314306 -0.00020935482 
  682000    2.6317033 0.0023944256    279726.26      2776938 -0.00013145691 0.00054662984 -0.00022063483 
  683000    2.6310231 0.0023960978    279726.26    2780829.3 -0.00016226985 0.00048699413 -0.00026258473 
  684000     2.635295 0.0023959362    279726.26    2784663.2 -0.00021231329 0.00048375493 -0.00020657658 
  685000    2.6366689 0.0023933686    279726.26    2788480.8 -0.00017490888 0.00053183935 -0.00015485847 
  686000    2.6366555 0.0023912558    279726.26    2792208.8 -0.0001569103 0.00047623073 -0.00015897713 
  687000    2.6331179 0.0023950204    279726.26    2796009.4 -0.00021644901 0.00045018855 -0.00012302622 
  688000    2.6332528 0.0023930784    279726.26    2799856.1 -0.00024280092 0.00047887934 -0.0001512155 
  689000    2.6311549 0.0023953265    279726.26    2803758.2 -0.00022286181 0.00047144808 -0.00013838826 
  690000     2.632764 0.0023933969    279726.26    2807760.5 -0.00017756551 0.00044909925 -0.00011482431 
  691000    2.6331624 0.0023927284    279726.26    2811796.2 -0.00016334639 0.00043420332 -3.9081909e-05 
  692000    2.6306285 0.0023965885    279726.26      2815842 -0.00016884131 0.00046248131 -1.5917629e-05 
  693000    2.6319489 0.0023949033    279726.26      2819896 -0.00013104457 0.00046818104 1.2606853e-06 
  694000    2.6331806 0.0023922855    279726.26    2823961.3 -0.00011669806 0.00052255584 7.028051e-05 
  695000     2.630972 0.0024210841    279726.26    2828069.4 -5.8426098e-05 0.00056055389 6.9348895e-05 
  696000    2.6336905 0.0024114639    279726.26    2832125.1 -8.9250035e-05 0.00055053151 3.6673464e-05 
  697000    2.6328958 0.0023923758    279726.26    2835963.3 -0.00014868114 0.00050855037 -1.2898758e-05 
  698000    2.6309419 0.0023962249    279726.26    2839808.2 -0.00013174237 0.00048797732 -1.0792786e-05 
  699000    2.6322756 0.0023938627    279726.26    2843622.6 1.4564121e-05 0.00050753473 -0.00016626656 
  700000    2.6326016 0.0023941482    279726.26      2847092 2.0852647e-06 0.00054190741 -0.00016339268 
  701000    2.6319253 0.0023939922    279726.26    2850575.5 4.9302933e-05 0.00050643483 -0.00019020544 
  702000    2.6351963 0.0023909689    279726.26    2854097.7 4.4941364e-05 0.00058416543 -0.00011325028 
  703000    2.6336874 0.0023926959    279726.26    2857722.6 4.4743348e-05 0.00058945618 -0.00011149828 
  704000    2.6336076 0.0023933015    279726.26    2861440.1 8.7352038e-05 0.00061404093 -9.8491001e-05 
  705000    2.6307069 0.0023965657    279726.26    2865213.3 8.0071863e-05 0.00059649714 -0.00011078664 
  706000    2.6328703 0.0024030453    279726.26    2868970.4 -9.829331e-06 0.00057982176 -9.219792e-05 
  707000    2.6321439  0.002394257    279726.26    2872611.1 1.5168045e-05 0.00045516583 -8.2137563e-05 
  708000    2.6346691 0.0024299851    279726.26    2876211.9 4.897249e-05 0.00064611359 -1.83387e-05 
  709000    2.6324156 0.0023943597    279726.26    2879658.4 -9.8290573e-05 0.00044849781 -4.609037e-05 
  710000    2.6329186 0.0023933608    279726.26    2883085.3 -0.00014486053 0.00044801295 -3.9065817e-05 
  711000    2.6319741  0.002393396    279726.26    2886559.7 -0.00015336883 0.00042788461 -8.2029422e-05 
  712000    2.6336047 0.0024038306    279726.26    2890019.8 -0.00014699932 0.00048214922 -8.8087584e-05 
  713000    2.6243501 0.0025082695    279726.26    2893394.7 -0.00020829355 0.00035241702 -0.00030257106 
  714000    2.6311007  0.002395798    279726.26    2896708.2 -0.00035517109 0.00034871449 -0.00020215574 
  715000    2.6308349 0.0023960917    279726.26    2900093.6 -0.00032314922 0.00031298303 -0.00019359439 
  716000    2.6349423 0.0023910942    279726.26    2903501.3 -0.00038022824 0.00034991044 -0.00027405661 
  717000    2.6344668 0.0024097139    279726.26    2906822.4 -0.00031158907 0.00035844065 -0.00020021022 
  718000    2.6319112 0.0023943339    279726.26    2910200.6 -0.0004024163 0.00028850873 -0.00021617548 
  719000    2.6377159 0.0024027653    279726.26    2913521.3 -0.00033294519 0.00031543014 -0.00020435766 
  720000    2.6340565 0.0023961023    279726.26    2916699.8 -0.00030813494 0.00023625936 -0.00020254075 
  721000    2.6367568 0.0023970955    279726.26    2919933.2 -0.00029047794 0.00031255511 -0.00021692539 
  722000    2.6339538 0.0023967835    279726.26      2923155 -0.00037342274 0.00036018883 -0.00020745566 
  723000     2.632825 0.0023946241    279726.26    2926436.1 -0.00034397499 0.00035231724 -0.00023243609 
  724000    2.6321064 0.0023940346    279726.26    2929805.1 -0.00034160634 0.00038198119 -0.00023189715 
  725000    2.6357133 0.0023903492    279726.26    2933245.5 -0.00040283593 0.0003549829 -0.00032346953 
  726000    2.6367941 0.0023889282    279726.26    2936696.3 -0.00041287446 0.00030092452 -0.00029157646 
  727000    2.6346938 0.0023992179    279726.26    2940286.4 -0.00039084501 0.00029524519 -0.00027810958 
  728000    2.6357434 0.0024046867    279726.26    2944008.4 -0.00045655349 0.00030459533 -0.0003198038 
  729000    2.6345553 0.0023900519    279726.26    2947567.9 -0.00053502957 0.00025431371 -0.00023338047 
  730000    2.6351603 0.0023906406    279726.26    2951103.6 -0.00066142349  8.66924e-05 -0.00038113745 
  731000    2.6340485 0.0023918075    279726.26    2954736.1 -0.00067028682 4.2807877e-05 -0.00040190335 
  732000    2.6252664 0.0024604658    279726.26    2958513.8 -0.00071018181 5.3206389e-05 -0.00034723178 
  733000       2.6321 0.0023944933    279726.26    2962509.8 -0.00076505303 0.00011645637 -0.00040527081 
  734000    2.6319933 0.0023945638    279726.26      2966577 -0.00072950559 0.00012900914 -0.00039836633 
  735000    2.6320684 0.0023953013    279726.26    2970666.2 -0.00070170826 0.00013870144 -0.00042637912 
  736000    2.6355245 0.0024063365    279726.26    2974840.6 -0.0006603561 8.9739136e-05 -0.00038803125 
  737000     2.633368  0.002400911    279726.26    2979116.1 -0.00072573408 0.00011328632 -0.00044016794 
  738000    2.6345502 0.0024212003    279726.26    2983385.1 -0.00065165106 7.595099e-05 -0.0004310421 
  739000    2.6336797 0.0023933494    279726.26    2987631.8 -0.00064827338 0.00016751774 -0.00043018736 
  740000    2.6325714 0.0024196394    279726.26    2992022.3 -0.00063414098 0.00021072779 -0.00041169361 
  741000    2.6339658 0.0024083633    279726.26    2996409.3 -0.00076076896 7.3940108e-05 -0.00034065207 
  742000    2.6331498 0.0023938069    279726.26    3000778.7 -0.00070458571 0.00013742919 -0.0003537864 
  743000    2.6322945 0.0023942147    279726.26    3005279.8 -0.00057352226 0.00018343692 -0.00028041445 
  744000      2.63098 0.0023962437    279726.26    3009946.1 -0.00060912219 0.00020015965 -0.00027755558 
[...]
 1846000      2.63381 0.0024106822    279726.26    8621128.6 0.00011346807 0.00027811281 0.00020436097 
 1847000    2.6352979 0.0023904139    279726.26    8627399.4 0.00016194772 0.00045042049 0.00033710257 
 1848000    2.6370218 0.0024163758    279726.26    8633946.3 0.00021602338 0.00041592377 0.00032937267 
 1849000    2.6327832  0.002392934    279726.26    8640541.8 0.00030041868 0.00049842273 0.00036381051 
 1850000     2.634373 0.0023953381    279726.26    8647297.8 0.00035821046 0.00047956088 0.00035394496 
 1851000      2.63102 0.0023956946    279726.26    8654539.3 0.00030950689 0.00049290187 0.00032958701 
 1852000    2.6352695 0.0023907499    279726.26    8661726.5 0.00022122256 0.00053272193 0.00031315917 
 1853000    2.6354944 0.0023956798    279726.26    8668723.4 0.00022955816 0.00048186965 0.0003347477 
 1854000    2.6321482   0.00239357    279726.26    8675513.4 0.0001982743 0.00048295631 0.00035441487 
 1855000    2.6334819 0.0024037439    279726.26      8682141 0.00012896064 0.00044293901 0.00032073945 
 1856000    2.6316196 0.0023946436    279726.26    8688303.5 0.00019297982 0.00041824109 0.00028032834 
 1857000     2.631931 0.0023944577    279726.26    8694703.9 0.00023941427 0.00035111049 0.00022904116 
 1858000    2.6340708 0.0023994217    279726.26    8701155.5 0.00022401903 0.00025315305 0.00027650379 
 1859000    2.6365649   0.00239784    279726.26    8707480.9 0.00021424015 0.0003404527 0.0003002916 
 1860000    2.6387269  0.002394944    279726.26    8713669.1 0.00026759183 0.00034274622 0.00034630093 
 1861000     2.633095 0.0023925113    279726.26    8719781.7 0.0003322566 0.00032259435 0.00029812668 
 1862000    2.6313234 0.0023953675    279726.26    8725821.2 0.00033509459 0.00030498715 0.00028567905 
 1863000    2.6306167 0.0023970073    279726.26      8732014 0.0003559206 0.0002789205 0.00028022283 
 1864000    2.6314925 0.0023954869    279726.26      8737995 0.00038057934 0.00027893322 0.00027470474 
 1865000    2.6342772 0.0023913365    279726.26    8744204.2 0.00041275522 0.00018848566 0.00025147848 
 1866000    2.6318282 0.0023949244    279726.26    8750560.7 0.00041543658 0.00026692603 0.00023177536 
 1867000    2.6305386 0.0023971437    279726.26    8756942.3 0.00041023839 0.00026577734 0.00025710152 
 1868000    2.6330042 0.0023956842    279726.26    8763380.7 0.00040004768 0.00027020993 0.00025995009 
 1869000    2.6313767 0.0023955806    279726.26      8769872 0.00043247118 0.00027881212 0.0001915073 
 1870000    2.6333443 0.0023937684    279726.26      8776557 0.00062733498 0.00031015345 0.00026148159 
 1871000    2.6338925 0.0024484444    279726.26    8783487.8 0.00065211307 0.00016700876 0.00036383238 
 1872000    2.6310182 0.0023962629    279726.26    8790513.3 0.00070713527 0.00021824521 0.00036820429 
 1873000    2.6317587 0.0023946771    279726.26    8797560.3 0.00062820647 0.00026416832 0.00048173709 
 1874000    2.6337884 0.0023932145    279726.26    8804915.9 0.00058719182 0.00025117094 0.00049362596 
 1875000    2.6330778 0.0024001983    279726.26    8812323.1 0.00056912958 0.00023476557 0.00046487963 
 1876000    2.6321264 0.0023937655    279726.26    8819758.5 0.00057061088 0.00022154784 0.00043031251 
 1877000    2.6316835 0.0024213086    279726.26    8827233.5 0.00058369297 0.00026313689 0.00049648527 
 1878000    2.6327027 0.0023941648    279726.26    8834473.4 0.00067448665 0.00038576562 0.00040272507 
 1879000    2.6344404 0.0023935009    279726.26    8841658.8 0.00074623768 0.00024068544 0.00038957758 
 1880000    2.6312841 0.0024588422    279726.26      8848804 0.0004334593 3.3635009e-05 0.00039052953 
 1881000    2.6335758 0.0023947532    279726.26    8855971.6 0.00057774237 0.00022490104 0.00045696786 
 1882000    2.6331429 0.0023929199    279726.26    8863094.9 0.0006036998 0.00021202375 0.00047664672 
 1883000    2.6336681 0.0023964342    279726.26    8870209.1 0.00062180404 0.00015592182 0.00047526236 
 1884000    2.6338741 0.0023931701    279726.26    8877132.3 0.00063996944 0.00013472146 0.00048582532 
 1885000    2.6342601 0.0024083313    279726.26    8884114.5 0.00062465141 0.00010671495 0.00039180702 
 1886000    2.6305499 0.0023969918    279726.26    8891102.2 0.00067584249 0.00010399348 0.00038542626 
 1887000     2.629681 0.0024446828    279726.26    8898147.7 0.00059720121 8.2499525e-05 0.00030873056 
 1888000    2.6304944 0.0023972035    279726.26    8904981.1 0.00068327254 7.8677951e-05 0.00029156155 
 1889000    2.6367733 0.0023949894    279726.26    8911841.6 0.00070746812 7.554473e-05 0.00031546141 
 1890000    2.6314077 0.0023953266    279726.26    8918641.3 0.00076820905 0.00010559169 0.00031105899 
 1891000    2.6350272 0.0023932819    279726.26    8925441.7 0.0007439909 0.00011362603 0.00028567149 
 1892000    2.6316024 0.0023951196    279726.26    8932154.2 0.00074208372 9.7021163e-05 0.00025167392 
 1893000    2.6328373 0.0023952076    279726.26    8938958.2 0.00061659447 0.00012310881 0.00023740301 
 1894000    2.6320065 0.0023947469    279726.26    8945669.4 0.00064817328 0.00013632576 0.00025434483 
 1895000     2.631367 0.0023951101    279726.26    8952336.1 0.00060500477 0.00010081944 0.00023852598 
 1896000    2.6346656 0.0023938323    279726.26    8958902.8 0.00045833621 8.0079181e-05 0.00031942976 
 1897000    2.6381878 0.0023898744    279726.26    8965463.6 0.00049425512 8.7530486e-05 0.00029824773 
 1898000    2.6376302  0.002388006    279726.26    8971954.8 0.00055869724 2.414005e-05 0.00032064618 
 1899000    2.6319706 0.0023935437    279726.26    8978573.5 0.00059273744 4.7253623e-05 0.00031258907 
 1900000     2.634317 0.0023922178    279726.26    8985105.6  0.000571888 4.9529848e-05 0.00031172626 
 1901000    2.6346658 0.0023980454    279726.26    8991772.3 0.00053350005 5.8647406e-05 0.00030256828 
 1902000    2.6373052 0.0023990749    279726.26    8998559.3 0.00054138808 6.6861043e-05 0.00032271649 
 1903000    2.6317344 0.0023948624    279726.26    9005670.5 0.00054844543 6.8113569e-05 0.00031951216 
 1904000    2.6333209 0.0023925148    279726.26    9012685.8 0.00054561913 1.9625303e-05 0.00043036751 
 1905000    2.6309299 0.0023961918    279726.26    9019596.7 0.00058073996 5.9926387e-06 0.00036797008 
 1906000    2.6328283 0.0023932276    279726.26    9026447.5 0.00053838803 6.1086294e-05 0.00035613595 
 1907000    2.6313921 0.0023951687    279726.26    9033482.4 0.00050369536 -2.0331615e-05 0.00036608027 
 1908000    2.6316389 0.0023946952    279726.26    9040530.5 0.00046931743 -2.543126e-05 0.00037487318 
 1909000    2.6339228 0.0023958736    279726.26    9047647.3 0.00050063284 9.6889758e-06 0.00034571045 
 1910000     2.631769  0.002394562    279726.26    9054812.8 0.00050071442 1.6089398e-05 0.00035442378 
 1911000    2.6350336 0.0024273348    279726.26    9062012.9 0.00042208763 2.8242048e-05 0.00035670058 
 1912000    2.6331156 0.0023983282    279726.26    9069060.4 0.00042316611 0.00013179811 0.0003246835 
 1913000    2.6318257 0.0023951598    279726.26    9076060.6 0.00038123009 3.4336997e-05 0.00031618402 
 1914000    2.6313625 0.0023955045    279726.26    9083078.3 0.00034103589 -2.0348484e-05 0.0003259224 
 1915000     2.639283 0.0023915169    279726.26    9090100.3 0.00034693854 3.6482807e-05 0.0002860333 
 1916000    2.6326494 0.0023936172    279726.26    9097238.1 0.0003121648 4.7054217e-05 0.00033522052 
 1917000    2.6341636 0.0023971916    279726.26    9104440.9 0.0003327786 3.000934e-05 0.00035888244 
 1918000    2.6365699 0.0023864731    279726.26    9111752.7 0.00033661915 5.9907763e-05 0.00031049214 
 1919000    2.6338812 0.0023944518    279726.26      9119070 0.00034671106 9.6831097e-05 0.00038870772 
 1920000    2.6311302 0.0023958492    279726.26    9126382.5 0.0004293576 0.00014646917 0.00031145236 
 1921000    2.6319506 0.0023942017    279726.26    9133622.1 0.0004474208 0.00014367767 0.00031456588 
 1922000    2.6348606 0.0023920656    279726.26    9141014.4 0.00040435702 8.9850282e-05 0.0002653409 
 1923000    2.6414993 0.0023952868    279726.26    9148275.5 0.0003925118 0.00010649465 0.00020988511 
 1924000    2.6350843  0.002391554    279726.26    9155768.9 0.00038941879 3.5791884e-05 0.00026876672 
 1925000     2.633292 0.0023934613    279726.26    9162813.6 0.00030284051 4.0987537e-05 0.00018870774 
 1926000    2.6335284 0.0023946016    279726.26      9169814 0.00024475874 2.8410799e-05 0.00015469844 
 1927000    2.6289997 0.0024406873    279726.26    9176593.6 0.00030155878 0.00013860538 7.8810195e-05 
 1928000    2.6356853 0.0023953483    279726.26    9183148.4 0.00027512055 0.00011221622 0.00017782693 
 1929000    2.6367091 0.0023984583    279726.26    9190238.8 0.00028031883 0.00011102354 5.3965591e-05 
 1930000    2.6329038 0.0023937867    279726.26    9196825.9 0.00022137263 0.0001022089 2.6552058e-05 
 1931000    2.6317786 0.0023945703    279726.26    9203284.4 0.00011976912 8.5746008e-05 5.8512165e-05 
 1932000    2.6327896 0.0023925739    279726.26      9209833 0.00015043566 2.8322612e-05 3.5756049e-05 
 1933000    2.6361434 0.0024008811    279726.26    9216513.6 0.00016107674 9.8202029e-05 -1.9060299e-06 
 1934000      2.63471 0.0023928759    279726.26    9223590.5 0.00014898727 6.8660966e-05 -7.4903861e-06 
 1935000    2.6369927 0.0023931533    279726.26    9230643.9 0.00014660265 0.0001099215 3.0034878e-05 
 1936000    2.6318326 0.0023941001    279726.26    9237932.2 0.00016722942 9.5930115e-05 6.8009194e-05 
 1937000    2.6316461 0.0023948927    279726.26      9245337 0.00013782717 7.5153417e-05 8.7037757e-05 
 1938000    2.6296693 0.0024487662    279726.26    9252733.6 0.00013275586 0.00014577635 -1.3769681e-05 
 1939000    2.6347682 0.0023975272    279726.26    9260050.9 0.0001722146 8.8177378e-05 9.3398302e-05 
 1940000    2.6307924 0.0023966729    279726.26    9267251.9 0.00017355568 4.6295827e-05 9.4591742e-05 
 1941000    2.6331099 0.0023960586    279726.26    9274391.1 0.00015558273 0.00013221595 0.0001360043 
 1942000    2.6291937 0.0024444874    279726.26    9281688.9 0.00032572417 6.8323929e-05 0.00012953248 
 1943000    2.6346561  0.002391819    279726.26    9288505.2 0.00011280168 0.00018751243 4.9173906e-05 
 1944000    2.6339239 0.0024107334    279726.26    9295047.2 0.00020872643 1.430988e-05 7.8219786e-05 
 1945000    2.6345119 0.0023914924    279726.26      9301637 0.00015268864 -1.9094949e-05 0.00021319389 
 1946000    2.6406169 0.0024010144    279726.26    9307983.6 -3.2749349e-05 -6.8240701e-05 0.00027412362 
 1947000    2.6322392 0.0023937579    279726.26    9314391.3 -1.7189867e-05 -6.4008814e-05 0.00028497385 
 1948000    2.6313829 0.0023956174    279726.26    9320791.8 -8.4121877e-05 -0.0001753056 0.00018083992 
 1949000    2.6349087 0.0023965078    279726.26    9327303.4 -0.00010749815 -0.00019240833 0.00021858905 
 1950000     2.632344 0.0023934653    279726.26    9333589.2 -9.8069945e-05 -0.00012295537 0.00022701217 
 1951000    2.6341471 0.0023913161    279726.26    9339755.8 -0.00012099075 -0.00013291563 0.00028474564 
 1952000    2.6336379  0.002391592    279726.26    9345801.2 -0.00011418908 -0.00015598496 0.00025411908 
 1953000    2.6326397 0.0023938371    279726.26    9351823.5 2.9642243e-05 -0.00014403143 0.00021293249 
 1954000    2.6327295 0.0023932737    279726.26    9357710.8 4.2206226e-05 -0.00014917377 0.00018268053 
 1955000    2.6346017 0.0023960019    279726.26    9363458.6 8.988014e-05 -0.00012413795 0.0001291791 
 1956000    2.6353637 0.0023959205    279726.26    9369065.5 0.0001497831 -0.00013300796 0.00010531487 
 1957000    2.6333571 0.0023942559    279726.26    9374630.5 0.00017291887 -0.00015463418 0.00010907626 
 1958000    2.6335691 0.0023923615    279726.26    9380283.3 0.00022630305 -0.00011629328 0.00017301725 
 1959000    2.6318241 0.0023949741    279726.26    9386020.4 0.00012506744 -7.5116636e-05 0.00010610481 
 1960000    2.6307115 0.0023966415    279726.26    9391956.1 0.00012626649 -4.345432e-05 3.1622001e-05 
 1961000    2.6312852 0.0023956785    279726.26    9398085.2 0.0001619953 3.4223505e-05 7.7097429e-05 
 1962000    2.6316084 0.0024191918    279726.26    9404330.2 0.00010501117 1.9542172e-05 4.3813079e-05 
 1963000     2.632311 0.0023947006    279726.26    9410346.1 0.0002083185 -2.5269134e-05 5.5985472e-05 
 1964000    2.6357109 0.0023963786    279726.26    9416364.4 0.00014710564 -6.0673182e-05 -2.109869e-05 
 1965000    2.6306933 0.0023967862    279726.26    9421983.9 0.00017388396 -0.00013166334 4.7480081e-05 
 1966000    2.6309134 0.0023963101    279726.26    9427304.2 0.00017051134 -0.00011971534 1.0179964e-05 
 1967000    2.6309448 0.0023958971    279726.26    9432709.3 0.00012432984 -0.00017693475 -3.916227e-05 
 1968000    2.6332174 0.0023922165    279726.26    9438058.5 0.00010605016 -0.00022626963 -5.4816091e-06 
 1969000    2.6340076 0.0024159434    279726.26    9443464.1 1.7022619e-05 -0.00011405014 1.2619519e-05 
 1970000    2.6389844 0.0023915577    279726.26    9448775.8 -5.1722265e-05 -3.1389729e-05 9.6680668e-05 
 1971000    2.6317149 0.0023942796    279726.26    9453911.4 -2.5095053e-05 -2.1321466e-05 6.9098651e-05 
 1972000    2.6319788  0.002394295    279726.26    9459102.1 -9.4552594e-05 -0.00014019051 0.00013520739 
 1973000    2.6310681 0.0023961755    279726.26    9464391.9 -9.2705289e-05 -0.00016299718 0.00010819248 
 1974000    2.6288508 0.0024366594    279726.26    9469666.1 -6.6832927e-05 -0.00014696155 0.00013805682 
 1975000    2.6322404 0.0024310455    279726.26      9474743 -0.00019429174 -3.416374e-05 0.00042016607 
 1976000    2.6318331 0.0023947484    279726.26    9479983.8 1.4632999e-05 -0.00022109133 0.0002184666 
 1977000    2.6329866 0.0023924538    279726.26    9485342.5 5.605755e-05 -0.00024475352 0.00019669793 
 1978000    2.6303493 0.0024300186    279726.26    9491052.5 4.225975e-05 -0.0002260854 0.00026913563 
 1979000    2.6331917 0.0023919611    279726.26    9496757.6 0.00014942752 -0.0002572081 0.00019909204 
 1980000    2.6330402 0.0023953242    279726.26    9502273.6 0.00019404528 -0.00029656313 0.00019462715 
 1981000    2.6101487 0.0025647285    279726.26    9507934.3 0.00046593458 -0.00018977526 0.00037849874 
 1982000    2.6375598 0.0024049114    279726.26    9513937.9 0.00045478511 -0.00022467271 0.00025540847 
 1983000    2.6148818 0.0025632812    279726.26    9519785.5 0.00049156498 -4.1300741e-05 0.00013383853 
 1984000    2.6346968 0.0023923961    279726.26    9525391.9 0.0004051146 -0.00023492733 0.00026644675 
 1985000    2.6386466 0.0024107038    279726.26    9531007.1 0.00037042137 -0.00030312006 0.00028546947 
 1986000    2.6351615 0.0023911951    279726.26    9536734.7 0.00037256408 -0.00023178226 7.9426666e-05 
 1987000    2.6317801 0.0023941093    279726.26    9542571.2 0.00040180438 -0.00023249486 7.209084e-05 
 1988000    2.6341564 0.0024123813    279726.26    9548372.9 0.00039628422 -0.0002398831 6.2944042e-05 
 1989000    2.6329931 0.0023972923    279726.26      9554116 0.00044498677 -0.0002068726 0.0001367818 
 1990000     2.630992 0.0023958276    279726.26      9559917 0.00046798861 -0.00021181119 0.00015706547 
 1991000    2.6315757 0.0023951139    279726.26      9565763 0.00044504962 -0.00020127593 0.00016347658 
 1992000    2.6329917  0.002396441    279726.26    9571621.5 0.00044408276 -0.00020031734 0.00015626659 
 1993000    2.6323509 0.0023933358    279726.26    9577607.6 0.00050363448 -0.00022411779 0.00015082069 
 1994000    2.6338711 0.0023923529    279726.26    9583573.4 0.00049651067 -0.00020648549 0.00011160126 
 1995000     2.631008 0.0023961732    279726.26    9589492.2 0.00044044163 -0.00019182091 0.00015757155 
 1996000    2.6332388 0.0024035049    279726.26    9595344.7 0.00036975809 -0.00021674009 0.00019436468 
 1997000    2.6310071 0.0023963034    279726.26    9601321.7 0.00034554257 -0.00019725481 0.00016273458 
 1998000    2.6311164 0.0023957348    279726.26    9607293.4 0.00034508049 -0.00021112499 0.00017772029 
 1999000    2.6313259 0.0023949992    279726.26    9613354.7 0.00035652066 -0.00020133925 0.00017348666 
 2000000    2.6365802 0.0023899754    279726.26    9619471.9 0.00029900687 -0.00022187909 0.00023053364 
Loop time of 887.521 on 1 procs for 2000000 steps with 256 atoms

Pair  time (%) = 5.85476 (0.659675)
Neigh time (%) = 29.532 (3.32748)
Comm  time (%) = 4.16669 (0.469475)
Outpt time (%) = 0.20545 (0.0231488)
Other time (%) = 847.762 (95.5202)

Nlocal:    256 ave 256 max 256 min
Histogram: 1 0 0 0 0 0 0 0 0 0
Nghost:    59 ave 59 max 59 min
Histogram: 1 0 0 0 0 0 0 0 0 0
Neighs:    12 ave 12 max 12 min
Histogram: 1 0 0 0 0 0 0 0 0 0

Total # of neighbors = 12
Ave neighs/atom = 0.046875
Neighbor list builds = 153906
Dangerous builds = 988
#	run			10000
	unfix			1
	uncompute		myKE
	uncompute		myPE
	uncompute		myStress
	uncompute		flux
	uncompute		myDis
	unfix			JJ

	next seed
	next iseed
jump lmp.in.gk loop_seed
variable iseed loop 5
variable seed index 11111 22222 33333 44444 55555 ###66666 77777 88888 99999 11112
clear

# Lennard-Jones
#Prepare Geometry---------------------------------------------------------------
units			lj
atom_style		atomic
read_data		lmp.in.x0.1
  orthogonal box = (0 0 0) to (65.4 65.4 65.4)
  1 by 1 by 1 MPI processor grid
  256 atoms
#Initialize Structure-----------------------------------------------------------
#mass           	1  1.0
#group         		Ar type = 1
#LJ Potentials------------------------------------------------------------------
pair_style		lj/cut 2.5
pair_coeff		* * 1.0 1.0
pair_modify          	shift yes
#pair_modify   	tail no

#Variables----------------------------------------------------------------------
#LJ Parameters
variable    	kB 		equal 1.3806504e-23 	# [J/K] Boltzmann
variable	sigma_Ar 	equal 3.4e-10 		# m
variable	eps_Ar		equal 1.67e-21		# J
variable	mass_Ar		equal 6.63e-26		# kg
variable	tau_Ar		equal 2.1423e-12	# s
#thermo Parameters
variable    	T_melt 		equal 300*(${kB}/${eps_Ar})
variable    	T_melt 		equal 300*(1.3806504000000001236e-23/${eps_Ar})
variable    	T_melt 		equal 300*(1.3806504000000001236e-23/1.6699999999999999942e-21)
variable	T_0K		equal 0.00001
variable	T_2_5K		equal 2.5*(${kB}/${eps_Ar})
variable	T_2_5K		equal 2.5*(1.3806504000000001236e-23/${eps_Ar})
variable	T_2_5K		equal 2.5*(1.3806504000000001236e-23/1.6699999999999999942e-21)
variable	T_5K		equal 5*(${kB}/${eps_Ar})
variable	T_5K		equal 5*(1.3806504000000001236e-23/${eps_Ar})
variable	T_5K		equal 5*(1.3806504000000001236e-23/1.6699999999999999942e-21)
variable	T_10K		equal 10*(${kB}/${eps_Ar})
variable	T_10K		equal 10*(1.3806504000000001236e-23/${eps_Ar})
variable	T_10K		equal 10*(1.3806504000000001236e-23/1.6699999999999999942e-21)
variable	T_15K		equal 15*(${kB}/${eps_Ar})
variable	T_15K		equal 15*(1.3806504000000001236e-23/${eps_Ar})
variable	T_15K		equal 15*(1.3806504000000001236e-23/1.6699999999999999942e-21)
variable	T_320K		equal 320*(${kB}/${eps_Ar})
variable	T_320K		equal 320*(1.3806504000000001236e-23/${eps_Ar})
variable	T_320K		equal 320*(1.3806504000000001236e-23/1.6699999999999999942e-21)

variable   	dt 		equal 0.002
variable	quench_rate	equal 1.0
variable	quench_length 	equal 10000
#kappa parameters
variable    	p 		equal 200000 		# correlation length
variable    	s 		equal 5  		# sample interval
variable    	d 		equal $p*$s 		# dump interval
variable    	d 		equal 200000*$s 		
variable    	d 		equal 200000*5 		

#SED parameters
variable	w_step		equal 2^5
variable	w_total		equal 2^16
variable	t_total		equal 2^18
variable	num_ffts	equal ${t_total}/${w_total}
variable	num_ffts	equal 262144/${w_total}
variable	num_ffts	equal 262144/65536

#------------ RUN TEMP ---------------------------------------------------------------------
variable 	T_run 		equal ${T_320K}
variable 	T_run 		equal 2.6455576526946114058
#------------ RUN TEMP ---------------------------------------------------------------------

log 	log_heat_${iseed}.lammps
log 	log_heat_5.lammps
