	reset_timestep  	0
	fix 			1 all nve
	compute   		myKE all ke/atom
	compute   		myPE all pe/atom
	compute   		myStress all stress/atom virial
	compute   		flux all heat/flux myKE myPE myStress
	variable  		Jx equal c_flux[1]/vol
	variable  		Jy equal c_flux[2]/vol
	variable  		Jz equal c_flux[3]/vol
	fix       		JJ all ave/correlate $s $p $d c_flux[1] c_flux[2] c_flux[3] type auto file J0Jt_${iseed}.dat ave running
	fix       		JJ all ave/correlate 5 $p $d c_flux[1] c_flux[2] c_flux[3] type auto file J0Jt_${iseed}.dat ave running
	fix       		JJ all ave/correlate 5 100000 $d c_flux[1] c_flux[2] c_flux[3] type auto file J0Jt_${iseed}.dat ave running
	fix       		JJ all ave/correlate 5 100000 500000 c_flux[1] c_flux[2] c_flux[3] type auto file J0Jt_${iseed}.dat ave running
	fix       		JJ all ave/correlate 5 100000 500000 c_flux[1] c_flux[2] c_flux[3] type auto file J0Jt_9.dat ave running
#	fix       		JJ all ave/correlate $s $p $d c_flux[1] c_flux[2] c_flux[3] type auto ave running
#	dump			JJ all custom 1000000 J0Jt.dat f_JJ[3] f_JJ[4] f_JJ[5]
	compute 		myDis all msd
	thermo_style 		custom step temp press vol c_myDis[4] v_Jx v_Jy v_Jz
	thermo			1000
	timestep		${dt}
	timestep		0.0020000000000000000416
	run			1000000
Memory usage per processor = 3.6416 Mbytes
Step Temp Press Volume myDis[4] Jx Jy Jz 
       0    2.4391535 0.0021702903    284904.75            0 3.9155673e-05 -0.00032136291 8.1627277e-05 
    1000    2.4386267 0.0021656687    284904.75     29.03766 0.00010336911 -0.00028478316 7.7876534e-05 
    2000    2.4424001 0.0021775732    284904.75    115.53769 0.00016070024 -0.00026801463 9.2329017e-05 
    3000    2.4356058 0.0021875298    284904.75    258.97727 0.00012107812 -0.00029048034 1.4520043e-05 
    4000    2.4412722 0.0021627697    284904.75    456.84877 -5.9682307e-05 -0.00015318611 -0.00029702684 
    5000    2.4365017 0.0021665207    284904.75    708.12921 9.3205869e-06 -0.00019170951 -0.00028294276 
    6000    2.4365085 0.0021825704    284904.75    1011.1313 -1.0199618e-05 -0.00023589657 -0.00019047876 
    7000    2.4357918 0.0021820088    284904.75    1368.1089 9.0643688e-06 -0.0002520004 -0.00018057217 
    8000    2.4316933  0.002163116    284904.75    1779.2934 -2.979623e-05 -0.00026899707 -0.00012215118 
    9000    2.4355743 0.0021613824    284904.75    2239.4664 -7.2677446e-05 -0.00031120662 -0.00015139367 
   10000    2.4323399 0.0021865507    284904.75    2750.9451 -0.00010287669 -0.00029405351 -6.8950491e-05 
   11000     2.435445 0.0021660831    284904.75    3306.3658 -0.00012046549 -0.00038281362 -0.00010755651 
   12000    2.4308108 0.0021663338    284904.75    3913.4212 -0.0001597853 -0.00039548091 -0.00010407651 
   13000    2.4293249 0.0021685522    284904.75    4577.9366 -0.00018297353 -0.00035772976 -9.6442029e-05 
   14000    2.4286881 0.0021714617    284904.75     5293.389 -6.2286148e-05 -0.00040680134 -3.123299e-05 
   15000    2.4285358 0.0021667435    284904.75    6050.5167 1.3311466e-05 -0.00048145223 -3.1058337e-05 
   16000    2.4324102 0.0022037036    284904.75    6854.4706 0.00016895049 -0.00031368476 8.6345474e-05 
   17000    2.4345086 0.0021734976    284904.75    7706.3779 3.6639303e-05 -0.00033220813 -8.4858482e-06 
   18000    2.4297284 0.0021634593    284904.75    8607.1973 -1.5293225e-05 -0.00032752947 -0.00025128558 
   19000    2.4334832 0.0021690706    284904.75    9560.0316 -1.4677706e-05 -0.00031299251 -0.00019551203 
   20000    2.4337365  0.002161008    284904.75    10555.814 -0.00016648152 -0.00048576119 -0.00020564874 
   21000    2.4330453 0.0021924922    284904.75    11590.107 -0.00013173945 -0.0003455767 -0.00014025606 
   22000    2.4321884 0.0021570038    284904.75    12670.345 -0.00014051146 -0.00029546366 -0.00013346495 
   23000    2.4308428 0.0021574887    284904.75    13794.496 -7.1045197e-05 -0.0001567617 3.5256863e-06 
   24000    2.4308067 0.0021565037    284904.75    14973.207 -0.00010406027 -9.9240049e-05 -3.148298e-05 
   25000    2.4308324  0.002167221    284904.75    16193.717 -7.370972e-05 -0.00010942185 -5.0010686e-05 
   26000    2.4280061 0.0021861076    284904.75    17467.028 -0.00010716399 -0.00011570201 -5.6570793e-05 
   27000      2.42889 0.0021935282    284904.75    18780.919 -0.00024007088 4.2053428e-07 1.6374677e-05 
   28000    2.4282308 0.0021646914    284904.75    20134.717 -0.0001388202 -1.4728361e-05 9.2028963e-05 
   29000    2.4277582 0.0021615143    284904.75    21499.235 -0.00020153433 2.1552231e-05 0.00015357975 
   30000    2.4272814 0.0021657527    284904.75    22903.152 -0.00019217065 2.2246338e-05 0.00016905264 
   31000    2.4265287 0.0021905314    284904.75    24352.878 -0.00024819222 -1.3730444e-05 0.00020486346 
   32000    2.4295932 0.0021752847    284904.75    25839.052 -0.00019695921 4.6702597e-05 0.00016618675 
   33000    2.4287797 0.0021730613    284904.75    27375.632 -0.00019035526 3.8805991e-05 0.0001720525 
   34000    2.4298872 0.0021918228    284904.75    28954.565 -0.00017979943 0.00022177491 0.00035255425 
   35000    2.4289414 0.0021644361    284904.75    30552.881 3.6623234e-06 0.00010990659 0.00029067987 
   36000    2.4291136  0.002159453    284904.75    32200.792 0.00011213737 5.8343866e-05 0.00030581504 
   37000    2.4309158 0.0021701527    284904.75    33897.208 6.0216167e-05 1.7090515e-05 0.00033615349 
   38000     2.429381  0.002167645    284904.75    35639.474 8.0856061e-05 3.2783479e-05 0.00032977392 
   39000    2.4286189  0.002173045    284904.75     37435.43 5.8342458e-05 2.2780944e-05 0.00032406991 
   40000    2.4296039 0.0021665959    284904.75    39288.704 0.00010877068 1.4464557e-05 0.00032178787 
   41000    2.4274445 0.0021611971    284904.75    41191.079 8.9154304e-05 3.7190345e-06 0.00022271175 
   42000    2.4270445 0.0021653421    284904.75    43149.264 0.00010121162 8.8856772e-06 0.00021720211 
   43000    2.4178123 0.0022488203    284904.75     45155.74 0.00026899832 -7.2216517e-05 0.00015541983 
   44000    2.4275717 0.0021667472    284904.75    47186.086 0.00015258981 1.2949163e-05 0.00022553558 
   45000    2.4278426  0.002177477    284904.75    49246.869 0.00014708899 -9.5938202e-05 0.0001209246 
   46000     2.426578 0.0021659853    284904.75    51352.317 0.00011641188 -6.3585462e-05 0.00010864745 
   47000    2.4286204 0.0021637326    284904.75    53510.816 0.00018494064 -0.00012821243 9.6467839e-05 
   48000    2.4267182  0.002163926    284904.75    55639.293 0.0001239876 -0.00020835173 7.3805954e-05 
   49000    2.4284876 0.0021610048    284904.75     57794.05 0.00011875302 -0.00024041786 6.2322701e-05 
   50000    2.4328154 0.0021692574    284904.75    59964.578 0.0001304064 -0.00028682237 0.00020677329 
   51000    2.4301726 0.0021704781    284904.75    62137.377 0.00021508939 -0.00023619028 0.00017620914 
   52000    2.4263609 0.0021634531    284904.75    64342.479 0.00022895744 -0.00026862409 0.00013489801 
   53000    2.4266288 0.0021604735    284904.75    66572.893 0.00027434278 -0.00029484279 0.00018309452 
   54000    2.4303735 0.0021975514    284904.75    68809.017 0.00027274424 -0.0003341755 9.5789456e-05 
   55000    2.4336049 0.0021668452    284904.75    71067.325 0.00028065508 -0.00028557948 0.00014839886 
   56000    2.4267299 0.0021724115    284904.75    73340.935 0.00031613815 -0.00029659197 0.00025148276 
   57000    2.4274032 0.0021651449    284904.75    75645.526 0.00029864352 -0.00027556361 0.00034842737 
   58000    2.4284887 0.0021604592    284904.75    78008.515 0.00033703508 -0.00023925808 0.0002812638 
   59000    2.4280863 0.0021671028    284904.75     80408.06 0.00021997715 -0.00021884813 0.00012581647 
   60000    2.4277879 0.0021696292    284904.75     82808.84 0.00015382811 -0.0001455538 0.00011411323 
   61000    2.4294999 0.0021646628    284904.75    85232.578 0.0001736037 -0.00024389445 0.00019993678 
   62000    2.4278347 0.0021608991    284904.75    87671.963 0.00013529033 -0.00023721193 0.00017009006 
   63000    2.4304791 0.0021627333    284904.75     90125.17 0.00017439612 -0.00022411446 0.00010281549 
   64000    2.4275126 0.0021606063    284904.75    92593.586 0.00010842908 -0.00021414042 0.00010050909 
   65000    2.4274813 0.0021610289    284904.75    95083.463 8.1527717e-05 -0.00024889316 0.00012986236 
   66000    2.4258095 0.0021613138    284904.75     97589.96 9.1725825e-05 -0.0002539025 0.00012713756 
   67000    2.4270747 0.0021604088    284904.75    100147.22 0.00010402365 -0.00037959259 0.0001916679 
   68000    2.4280707 0.0021609699    284904.75    102738.21 0.00011028498 -0.00034453825 0.00019940779 
   69000     2.427642 0.0021588942    284904.75    105370.28 0.00013681489 -0.00036111516 0.00021029874 
   70000    2.4268128 0.0021955957    284904.75    108055.75 3.261314e-05 -0.00042285282 0.00032154339 
   71000     2.427581 0.0021622402    284904.75    110783.62 0.00013664069 -0.00035535366 0.00019152086 
   72000    2.4295967 0.0021617909    284904.75    113529.33 6.9604937e-05 -0.00030935456 0.00015910279 
   73000    2.4291661 0.0021557906    284904.75     116270.3 8.5144518e-05 -0.00045718986 0.00014658007 
   74000    2.4246295 0.0021840568    284904.75    119050.27 0.00010442292 -0.00046357336 0.00020303914 
   75000    2.4249266 0.0021611515    284904.75    121819.21 0.00023649918 -0.00033935531 -2.7664079e-06 
   76000    2.4262717 0.0021625014    284904.75    124611.39 0.00033098496 -0.00022015859 -3.5988448e-05 
   77000    2.4241321 0.0021634217    284904.75    127418.23 0.00019104721 -0.00028323913 -1.9693548e-05 
   78000    2.4244744 0.0021629951    284904.75       130264 0.00019747911 -0.00029891592 -2.8660534e-06 
   79000    2.4251141 0.0021614413    284904.75    133164.07 0.00022553428 -0.00027103162 -9.3405422e-06 
   80000    2.4236099 0.0021641464    284904.75    136065.45 0.00023605194 -0.00026659485 4.9830603e-05 
   81000    2.4277702  0.002160231    284904.75     139009.1 0.00023597072 -0.00024481059 4.813326e-05 
   82000    2.4237731 0.0021635169    284904.75    141926.82 0.00030280182 -0.0001806778 7.9126668e-05 
   83000    2.4247889 0.0021621262    284904.75    144835.54 0.00029418952 -0.00017175087 0.00012963042 
   84000    2.4235548 0.0021632776    284904.75    147744.57 0.00037831548 -0.00025045681 9.9581788e-05 
   85000    2.4249999  0.002194462    284904.75    150651.84 0.00036216345 -0.00021840267 0.0001133729 
   86000    2.4289336 0.0021568542    284904.75    153608.73 0.00036338568 -0.00028554714 7.3978605e-05 
   87000    2.4275905 0.0021752329    284904.75     156572.8 0.00040787483 -0.00020603165 0.00012725024 
   88000    2.4259824 0.0021640673    284904.75     159539.9 0.00039695939 -0.00020196658 9.4215867e-05 
   89000    2.4235022 0.0021635168    284904.75    162541.14 0.0002992122 -0.00034123706 0.00012196998 
   90000    2.4248831 0.0021618491    284904.75    165540.29 0.00026461632 -0.00033386144 0.00015449919 
   91000    2.4296289 0.0021936575    284904.75    168579.04 0.00027689993 -0.00033646714 0.00013484851 
   92000    2.4228568 0.0021648433    284904.75    171636.14 0.00027099598 -0.00033619034 0.00014631227 
   93000    2.4279417 0.0021605619    284904.75    174734.98 0.00026078829 -0.00021480102 0.00010900171 
   94000    2.4282152 0.0021728439    284904.75    177803.26 0.00037123284 -0.00021963204 4.5147102e-05 
   95000    2.4242944 0.0021625561    284904.75     180857.8 0.00052923096 -0.00021115633 -7.2475435e-05 
   96000    2.4252729 0.0021681139    284904.75    183915.15 0.00054850962 -0.0002090221 -7.6882318e-05 
   97000    2.4216142 0.0022142615    284904.75    187005.63 0.00051730064 -0.00023900887 -2.258828e-05 
   98000    2.4252056 0.0021639181    284904.75    190052.27 0.00048986779 -0.00025819787 4.6196984e-05 
   99000    2.4254128  0.002161475    284904.75    193122.91 0.00048279926 -0.00022131872 3.945152e-06 
  100000    2.4270599 0.0021589242    284904.75    196231.61 0.00048462212 -0.00019680876 -2.8653559e-05 
  101000    2.4218821 0.0021665613    284904.75    199334.26 0.0004869671 -0.00024067659 -5.8012321e-05 
  102000    2.4184394 0.0022311229    284904.75    202478.52 0.00068845234 0.0002198273 1.4743811e-05 
  103000    2.4226487 0.0021897168    284904.75    205636.63 0.0006216578 -0.000143755 2.1119305e-05 
  104000    2.4223061 0.0021656352    284904.75     208822.4 0.00062441941 -0.00013749435 -6.6103632e-05 
  105000    2.4252453 0.0021622333    284904.75    212042.96 0.00062475809 -0.00016616856 -9.2262074e-05 
  106000    2.4260952 0.0021600619    284904.75    215327.08 0.00059908877 -0.00021154471 -8.5302815e-05 
  107000    2.4246369 0.0021622683    284904.75    218635.06 0.00055183488 -4.350814e-05 -0.00021279853 
  108000     2.426774 0.0021764297    284904.75     221968.2 0.00050042607 -5.8487533e-05 -0.00017032791 
  109000    2.4242838 0.0021790213    284904.75    225320.38 0.0005919184 -0.00014015632 -0.00016693425 
  110000     2.428798 0.0021889988    284904.75    228664.44 0.00057634754 -5.4548826e-05 -1.6123657e-05 
  111000    2.4231253 0.0021644306    284904.75     231932.2 0.00054834403 4.3946794e-05 -9.3907212e-05 
  112000    2.4233877 0.0021640571    284904.75    235231.67 0.00053461681 9.2191354e-05 -9.7290244e-05 
  113000    2.4276105 0.0021664977    284904.75    238589.65 0.00049604517 7.9651735e-05 -0.00010305123 
  114000    2.4243537 0.0021649118    284904.75    241996.05 0.0005376513 8.0314178e-05 -0.00011283907 
  115000     2.427509 0.0021589094    284904.75    245439.16 0.00058741394 5.8548842e-05 -0.00017119126 
  116000    2.4238342 0.0021626885    284904.75    248862.47 0.00057964614 4.0236721e-05 -0.00018427788 
  117000     2.422437 0.0022020942    284904.75    252333.91 0.0005196905 -2.6725237e-06 -0.00019921147 
  118000    2.4260288 0.0021702814    284904.75    255769.67 0.00053130902 -2.5571811e-05 -0.00017672234 
  119000    2.4284786 0.0021655419    284904.75    259204.44 0.00052900702 -4.3409115e-05 -0.0001875098 
  120000    2.4263336 0.0021837814    284904.75    262562.84 0.00061109734 -0.00022962035 -0.00024531027 
  121000    2.4275435 0.0021601146    284904.75    265896.35 0.00052589999 -0.00020846131 -0.00027870096 
  122000    2.4264316 0.0021689461    284904.75    269259.64 0.00049993876 -0.00021137768 -0.00021793732 
  123000    2.4271813 0.0021633126    284904.75    272619.05 0.00040394741 -0.0001401214 -0.00026090116 
  124000    2.4227879 0.0021648774    284904.75     275955.3 0.00044716996 -0.00011799018 -0.00027870642 
  125000    2.4221266  0.002237789    284904.75    279273.46 0.00039917427 -0.00017070379 -0.00019797929 
  126000    2.4256954 0.0021602635    284904.75    282574.63 0.0004448467 -0.00023490415 -0.00030687736 
  127000    2.4216634  0.002166679    284904.75    285846.47 0.00042715065 -0.00027004801 -0.00031187736 
  128000    2.4227305 0.0022037688    284904.75    289135.79 0.00030574096 -0.00023166496 -0.00030874409 
  129000    2.4247911 0.0021782453    284904.75    292448.44 0.00038990271 -0.00028322993 -0.00025960949 
  130000    2.4283858 0.0021631922    284904.75    295802.26 0.00033457263 -0.00021883343 -0.00018953247 
  131000    2.4294298 0.0021628304    284904.75    299209.61 0.00034363286 -0.00023441746 -0.00020620143 
  132000    2.4255157 0.0021609332    284904.75    302652.84 0.00036299454 -0.00024236862 -0.00020860234 
  133000    2.4249809 0.0021690099    284904.75    306129.63 0.00034249924 -0.00024018021 -0.00022430514 
  134000    2.4268323   0.00217544    284904.75    309561.33 0.00027283317 -0.00026331246 -0.00025591094 
  135000     2.425923 0.0021598498    284904.75    312991.36 0.00030284528 -0.00021100352 -0.00023004149 
  136000    2.4249661 0.0021616018    284904.75    316387.08 0.00037440884 -0.00017630944 -0.00021834471 
  137000    2.4238672 0.0021640453    284904.75    319762.78 0.0003484055 -0.00017807733 -0.0003266688 
  138000    2.4243232 0.0021799552    284904.75    323147.64 0.00041709063 -0.00013716653 -0.00037428909 
  139000    2.4237282 0.0021630611    284904.75    326566.56 0.00034082938 -0.00022935468 -0.00034138813 
  140000     2.425135 0.0021771018    284904.75    330020.68 0.00034510505 -0.00020349606 -0.00030800284 
  141000    2.4244826 0.0021615482    284904.75    333516.49 0.00033799226 -0.00010732976 -0.0002198678 
  142000    2.4291049 0.0021562819    284904.75    336987.96 0.00032313068 -0.00019217231 -0.00027225903 
  143000    2.4268329    0.0021673    284904.75    340452.11 0.00028661962 -0.00017315063 -0.00027887693 
  144000    2.4239131 0.0021629313    284904.75    343974.54 0.00042084415 -4.4012429e-05 -0.00037132222 
  145000    2.4236421 0.0021634455    284904.75    347566.28 0.00041896298 -2.4371715e-05 -0.00040349363 
  146000    2.4262949 0.0021582079    284904.75    351143.65 0.00041200987 3.2358392e-05 -0.00042301534 
  147000    2.4257662 0.0021605988    284904.75    354596.85 0.00043848241 9.5621684e-05 -0.00050101122 
  148000    2.4239469 0.0021625638    284904.75    358025.22 0.00043731821 0.00018485661 -0.00041828603 
  149000     2.422843  0.002164453    284904.75    361475.11 0.00045491804 0.00016822342 -0.00044104002 
  150000    2.4289097   0.00217648    284904.75    364966.25 0.00039917568 0.00015786734 -0.00049134468 
  151000    2.4263528 0.0021605389    284904.75    368504.45 0.00045308986 0.00015455764 -0.00039055567 
  152000    2.4249271 0.0021618164    284904.75    372109.32 0.0005106352 0.00016822769 -0.00046577818 
  153000    2.4281961  0.002166337    284904.75    375782.39 0.00052152441 0.00015792951 -0.00045200652 
  154000    2.4292716 0.0021618796    284904.75    379450.63 0.00061055588 0.00011007984 -0.00042852385 
  155000    2.4226091 0.0021645093    284904.75    383085.78 0.00059510405 8.1550715e-05 -0.00039640615 
  156000    2.4251292 0.0021667381    284904.75    386701.33  0.000612177 -1.5147026e-06 -0.00039716993 
  157000    2.4258527 0.0021613115    284904.75    390293.58 0.00059790685 7.5528396e-05 -0.00029610735 
  158000    2.4287841 0.0021594503    284904.75    393935.48 0.00061020902 3.8118381e-05 -0.00031513172 
  159000    2.4318559 0.0021569572    284904.75    397547.36 0.00047728759 8.6752735e-05 -0.00046579457 
  160000    2.4251386 0.0021646987    284904.75    401008.48 0.00047143027 0.0001549195 -0.00052060905 
  161000    2.4243193 0.0021656777    284904.75     404464.6 0.00046906676 6.868998e-05 -0.000431182 
  162000    2.4280282 0.0021635037    284904.75    407913.39 0.0004884735 0.00011541185 -0.00041748338 
  163000    2.4263669 0.0021613379    284904.75    411360.09 0.00052154552 6.0997866e-05 -0.00056949109 
  164000    2.4226482 0.0021647206    284904.75    414825.25 0.0004791887 0.00010666315 -0.00058218537 
  165000    2.4276494 0.0021646798    284904.75    418341.03 0.00052214985 3.2559045e-05 -0.0006863206 
  166000    2.4247945 0.0021610606    284904.75    421840.77 0.00052560566 -3.8391458e-07 -0.00067637535 
  167000    2.4233865 0.0021638535    284904.75     425342.5 0.00046774079 -3.5556561e-05 -0.00066249974 
  168000    2.4250362  0.002160649    284904.75    428842.61 0.00044621903 -7.2129565e-05 -0.00075142832 
  169000     2.424328 0.0021624291    284904.75    432292.44 0.00068439544 -0.00013251217 -0.0007969775 
  170000    2.4267826 0.0021599697    284904.75    435711.68 0.00064530479 -0.00013245199 -0.00081367683 
  171000     2.423301 0.0021633991    284904.75    439194.46 0.00067344058 -9.4212218e-05 -0.00083997493 
  172000     2.420001 0.0022105275    284904.75    442726.95 0.00064165413 -0.00026224913 -0.00075262431 
  173000    2.4249414 0.0021612039    284904.75    446236.53 0.00071100789 -7.7868793e-05 -0.00083725391 
  174000     2.424725 0.0021644985    284904.75    449785.91 0.00057996238 -9.9590148e-05 -0.00070149858 
  175000    2.4222896 0.0021656321    284904.75    453228.43 0.00058490816 -6.9808898e-05 -0.00070189212 
  176000    2.4226665 0.0021646278    284904.75    456722.32 0.00063484763 -9.9985424e-05 -0.00068239615 
  177000    2.4268454 0.0021793707    284904.75    460242.08 0.00063501373 -3.705746e-05 -0.00062299998 
  178000    2.4224843 0.0021649519    284904.75    463670.08 0.00063978742 -6.2136259e-05 -0.00062976315 
  179000    2.4238441 0.0021635855    284904.75    467116.17 0.00064680408 -0.00021211645 -0.00063346975 
  180000    2.4254596 0.0021666249    284904.75    470564.32 0.00060891328 -0.00021972977 -0.0006360321 
  181000     2.422195 0.0021654258    284904.75     474003.4 0.00060451224 -0.00019188332 -0.00061323658 
  182000    2.4207116 0.0022048658    284904.75    477473.01 0.00061145735 -0.00018945086 -0.00062648868 
  183000    2.4193149 0.0022142577    284904.75    480960.85 0.00060272398 -0.00026621524 -0.00057599629 
  184000    2.4277836 0.0021569719    284904.75    484436.21 0.0006400746 -0.00023067609 -0.00063902911 
  185000    2.4230902 0.0021634889    284904.75    487926.14 0.00062305073 -0.00023680944 -0.00065186088 
  186000    2.4271346 0.0021588105    284904.75     491439.3 0.00058606809 -0.0001268958 -0.00072558676 
  187000     2.421961 0.0021659229    284904.75    494957.21 0.00056793409 -0.00014135564 -0.00072111679 
  188000    2.4250787 0.0021622121    284904.75    498527.58 0.00057474103 -0.00013399172 -0.00074211886 
  189000    2.4239858 0.0022038298    284904.75    502141.25 0.00058691591 -0.00015574018 -0.00077252721 
  190000    2.4228653 0.0021647512    284904.75    505719.18 0.00049607923 -7.3292814e-05 -0.00076961334 
  191000    2.4282708 0.0021724017    284904.75    509184.11 0.0005032691 -0.00012782453 -0.0006602544 
  192000    2.4258067 0.0021606863    284904.75    512643.18 0.00037031439 -7.0416429e-05 -0.00055244155 
  193000    2.4231588 0.0021639006    284904.75     516197.8 0.00043959694 9.6052234e-05 -0.00051519823 
  194000    2.4264389 0.0021605257    284904.75    519733.53 0.00041775765 8.2792243e-05 -0.00050933758 
  195000    2.4275533 0.0021835026    284904.75    523304.66 0.00035039894 0.0002751872 -0.0004190772 
  196000    2.4269438 0.0021879127    284904.75       526946 0.00034153144 0.00015256313 -0.00044965039 
  197000    2.4245268 0.0021621589    284904.75     530580.1 0.00036686383 0.00016013972 -0.00051055513 
  198000    2.4287255 0.0021568641    284904.75    534254.76 0.0003770256 0.00016664078  -0.00051611 
  199000    2.4260644 0.0021612692    284904.75    537872.79 0.00032046175 0.00023062168 -0.00046338725 
  200000    2.4226169 0.0021645905    284904.75    541530.33 0.0003357482 0.00025629743 -0.00050801601 
  201000    2.4264605 0.0021585597    284904.75     545235.8 0.00029262719 0.00028226164 -0.00055604581 
  202000    2.4242469 0.0021614495    284904.75    548862.97 0.00040405261 0.00032404265 -0.00056928284 
  203000    2.4219638 0.0021660477    284904.75    552499.76 0.00037168699 0.00028710734 -0.00055084054 
  204000    2.4224079 0.0021656096    284904.75    556153.19 0.00025777005 0.00026232998 -0.00042585082 
  205000    2.4269226 0.0021613536    284904.75    559808.94 0.00018754781  0.000251654 -0.00037517568 
  206000    2.4284731 0.0021640163    284904.75     563431.9 0.00021286646 0.00039275265 -0.00028858788 
  207000    2.4314424 0.0021671418    284904.75    567122.63 0.00017932599 0.00046988558 -0.00023948272 
  208000    2.4233525  0.002164244    284904.75    570813.28 0.00016538141 0.00045981698 -0.00026698811 
  209000     2.423156 0.0021645786    284904.75    574552.15 0.00018781038 0.00045529853 -0.0002851042 
  210000    2.4241854 0.0021645502    284904.75    578282.24 0.00023296096 0.00043631997 -0.0002525433 
  211000    2.4214455 0.0022008623    284904.75    582060.25 0.00025030591 0.00042092782 -0.0002570568 
  212000    2.4240466 0.0021630239    284904.75    585907.83 0.0002758761 0.00035482415 -0.0002795119 
  213000     2.423198  0.002164288    284904.75     589748.8 0.00042457505 0.00031305892 3.7363409e-05 
  214000    2.4227809 0.0021647904    284904.75    593643.21 0.0004292407 0.00031503242 3.3069871e-05 
  215000    2.4240249  0.002162716    284904.75    597584.14 0.00043706256 0.00035212078 7.1219753e-05 
  216000    2.4217673 0.0021663935    284904.75    601573.89 0.00043129007 0.00031226356 7.6522957e-05 
  217000      2.42446 0.0021641117    284904.75    605614.36 0.00044042202 0.00031364606 6.7112482e-05 
  218000    2.4232205 0.0021636313    284904.75    609695.67 0.00052897511 0.00032052466 1.3589029e-05 
  219000    2.4217283 0.0021668007    284904.75    613748.15  0.000474968 0.00035668846 6.5682047e-06 
  220000    2.4282026 0.0021589917    284904.75    617780.25 0.00045648413 0.00041795676 0.00011290449 
  221000    2.4275632 0.0021669586    284904.75    621836.31 0.00046571822 0.00043408501 7.5176322e-05 
  222000    2.4291665 0.0021560377    284904.75     625981.3 0.00050303926 0.00042490573 5.6224746e-05 
  223000     2.425643 0.0021695294    284904.75    630177.33  0.000443488 0.00041277727 6.9584134e-05 
  224000    2.4239266 0.0021628159    284904.75    634385.08 0.00044855146 0.00040435239 5.5809052e-05 
  225000     2.426597 0.0021640658    284904.75    638655.48 0.00045391719 0.00047409639 2.8461669e-05 
  226000    2.4250515 0.0021687376    284904.75    642944.97 0.0004662977 0.00046589637 3.2419471e-05 
  227000    2.4280139 0.0021653302    284904.75     647296.1 0.00048026142 0.00042319956 -3.3153086e-05 
  228000    2.4237313 0.0021637889    284904.75    651477.24 0.00054153507 0.00028027814 0.00012125142 
  229000    2.4242089  0.002173962    284904.75    655492.56 0.00046218097 0.00028451069 -7.1579877e-05 
  230000     2.424042 0.0021633465    284904.75    659564.27 0.00049210169 0.00030431348 -3.731715e-05 
  231000    2.4257725 0.0021660201    284904.75    663618.83 0.00047439553 0.00027090354 0.0001192095 
  232000    2.4245202 0.0021722924    284904.75    667716.14 0.00042324007 0.00027642698 9.8677009e-05 
  233000    2.4244979  0.002162835    284904.75    671797.02 0.00054791336 0.00018578843 0.00018499509 
  234000    2.4238191 0.0021632753    284904.75    675929.48 0.00052650394 0.00019642057 0.00022956875 
  235000    2.4273711 0.0021645029    284904.75    680082.29 0.00054685886 0.00020303719 0.00024632903 
  236000    2.4278967  0.002161093    284904.75    684228.67 0.00041441524 0.00017095119 0.00024877978 
  237000    2.4273216 0.0021616064    284904.75    688364.27 0.0004266356 0.00017593919 0.00023125168 
  238000    2.4288169 0.0021667039    284904.75    692531.95 0.00039334298 0.0001956159 0.0002340258 
  239000    2.4277196 0.0021602864    284904.75    696717.19 0.00038971826 0.00014225079 0.00026045823 
  240000    2.4238701 0.0021911939    284904.75    700920.65 0.00040075147 0.00016801704  0.000280496 
  241000      2.42376  0.002165108    284904.75     705167.6 0.00041884144 0.00011786396 0.00031530366 
  242000    2.4298725  0.002217266    284904.75    709456.55 0.00044702989 0.0001400318 0.0002736001 
  243000    2.4248389 0.0021613611    284904.75    713657.97 0.00042114886 0.00018919913 0.00033417986 
  244000     2.428313  0.002164761    284904.75    717831.06 0.00048154757 0.00021013593 0.00032835744 
  245000    2.4284795 0.0021631459    284904.75    721932.78 0.00053462218 0.00017377841 0.00022175029 
  246000     2.426527 0.0021721512    284904.75    725973.04 0.00043100699 0.00016131576 0.00035171361 
  247000    2.4250379 0.0021614725    284904.75    729973.46 0.00037021919 0.00030221054 0.00036315818 
  248000    2.4255165 0.0021711715    284904.75    733923.78 0.00038853299 0.00031008858 0.00035913315 
  249000     2.425165 0.0021607903    284904.75    737826.28 0.00041136285 0.00024130447 0.00032347052 
  250000    2.4231766  0.002164911    284904.75    741732.52 0.00039876394 0.0002277153 0.00029388043 
  251000    2.4255071 0.0021722712    284904.75    745611.35 0.0003846219 0.00021034776 0.00030615106 
  252000    2.4254429 0.0021608346    284904.75       749521 0.00040336905 0.00017674729 0.00027220348 
  253000    2.4241455 0.0021632434    284904.75    753452.72 0.00040667638 0.0002212134 0.0002828608 
  254000    2.4249054 0.0021689415    284904.75     757355.6 0.00039737899 0.00025586915 0.00028649555 
  255000    2.4286722 0.0021604841    284904.75     761264.1 0.00047516037 0.00020187867 0.00025494595 
  256000    2.4234807 0.0021637872    284904.75    765103.82 0.00051667675 0.0002002501 0.00016909881 
  257000     2.431841 0.0021596917    284904.75    768996.25 0.00050359868 0.00019287944 0.00020489051 
  258000    2.4240021 0.0021631882    284904.75     772920.4 0.00052100278 0.00023427195 0.00015278473 
  259000    2.4243186 0.0021618852    284904.75    776924.37 0.00047322227 0.00026135782 5.0339528e-05 
  260000    2.4260629 0.0021621551    284904.75    780983.83 0.00024950645 0.00025050278 7.235576e-05 
  261000     2.424705  0.002168034    284904.75    785114.17 0.00024770472 0.00027636388 9.9506478e-05 
  262000    2.4235395 0.0021639021    284904.75    789256.46 0.0001917358 0.00021054126 8.1119362e-05 
  263000    2.4275688 0.0021624501    284904.75    793379.25 0.0001344968 0.00020364894 -6.6337818e-05 
  264000    2.4283411 0.0021899328    284904.75    797479.47 3.681558e-05 0.00022197158 1.9767463e-05 
  265000    2.4252337 0.0021682351    284904.75    801660.13 0.00012056503 0.00025545759 -2.9153151e-05 
  266000    2.4230004 0.0022182222    284904.75    805865.26 7.2746028e-05 0.00012331551 -1.8295629e-05 
  267000    2.4270491 0.0021740199    284904.75    809948.66 0.00019904388 0.00021545712 -1.7965492e-05 
  268000    2.4231773 0.0021650207    284904.75    814000.89 0.0001341277 0.00018552758 2.3548868e-05 
  269000    2.4256362 0.0021652894    284904.75    818118.38 0.00018601001 0.00013332917 3.5152171e-05 
  270000    2.4194174 0.0022154059    284904.75     822234.6 0.00016341508 0.00010667926 -0.00012313325 
  271000    2.4244028 0.0021636333    284904.75    826329.11 0.00022355236 9.7987319e-06 -6.0521536e-05 
  272000    2.4244146 0.0021750687    284904.75    830374.87 0.00021292716 0.00012896406 -4.4822769e-05 
  273000     2.426672  0.002199094    284904.75    834392.91 0.00018706063 -2.1340626e-05 -0.00019591572 
  274000    2.4217504 0.0021665213    284904.75    838424.27 0.00017549448 -2.8142141e-05 -0.00016036568 
  275000    2.4237934 0.0021633961    284904.75    842490.02 0.0001955397 4.6242892e-06 -0.00019298631 
  276000    2.4166271 0.0022410016    284904.75    846554.07 0.00019109789 2.400739e-05 -0.00011196449 
  277000    2.4279835 0.0021557268    284904.75    850604.56 0.00016482859 -2.7947862e-05 -0.00011420151 
  278000    2.4274969  0.002158093    284904.75    854603.62 0.00018176476 0.00012668547 -8.9818602e-05 
  279000    2.4232536 0.0021642135    284904.75    858633.86 0.00019104647 0.00013665331 -8.6521021e-05 
  280000     2.422305 0.0021651229    284904.75    862584.79 0.00021440202 0.00016813704 -9.9538713e-05 
  281000    2.4222248 0.0021656061    284904.75    866534.32 0.0002100289 0.00015093217 -0.00011809362 
  282000    2.4240148  0.002178798    284904.75    870561.19 0.00013969047 0.0001292809 -8.947162e-05 
  283000    2.4257178  0.002161966    284904.75    874621.09 0.00015199395 0.00017878523 -7.6408175e-05 
  284000     2.425612  0.002163266    284904.75    878682.55 0.0001454352 0.00026818898 -7.5772161e-06 
  285000    2.4249237 0.0021620316    284904.75    882776.67 0.00013003147 0.0002495123 6.0140627e-06 
  286000    2.4264447 0.0021775279    284904.75    886836.02 -2.7023811e-05 0.00020018581 -1.2725899e-05 
  287000    2.4243041 0.0021619908    284904.75    890903.77 4.5485274e-05 0.00017666897 8.3140579e-05 
  288000    2.4248138 0.0021618483    284904.75    894963.92 7.4804569e-05 0.00018086616 6.4387456e-05 
  289000    2.4227388 0.0021648039    284904.75    899033.56 7.3073786e-05 0.0001436473 -3.4125615e-05 
  290000     2.424327  0.002163599    284904.75    903115.05 8.8106249e-05 7.4853895e-05 5.8673777e-05 
  291000    2.4245781 0.0021624251    284904.75    907180.68 0.00014967872 9.5527063e-05 8.2774262e-05 
  292000    2.4226546 0.0021647019    284904.75    911256.31 9.1298364e-05 4.8078572e-05 3.3449099e-05 
  293000     2.423763 0.0021628225    284904.75    915337.43 9.7705782e-05 9.589085e-05 8.0009625e-05 
  294000    2.4262521 0.0021802567    284904.75    919421.98 0.00014738181 -1.1424378e-05 0.00010601674 
  295000    2.4265622 0.0021782226    284904.75    923523.56 0.00029321973 1.4727494e-05 9.061757e-05 
  296000    2.4222934 0.0021651414    284904.75    927676.77 0.00026924812 -1.3347529e-06 0.00010469757 
  297000    2.4234976 0.0021637041    284904.75     931801.1 0.00027373178 0.00017463463 0.00011745509 
  298000    2.4221447  0.002165644    284904.75    935966.86 0.00024666002 0.00011619816 7.940837e-05 
  299000    2.4254358 0.0021602857    284904.75    940145.33 0.00034469243 8.3382844e-05 0.00023264529 
  300000    2.4239858 0.0021634498    284904.75    944347.13 0.00037126379 0.00013313216 0.00014552334 
  301000    2.4255523 0.0022231051    284904.75    948507.28 0.00046790392 8.871504e-05 0.00010934173 
  302000    2.4244656  0.002163004    284904.75    952573.85 0.00045588898 0.00021575732 0.00021472973 
  303000    2.4102613 0.0022680798    284904.75    956646.91 0.00072133251 0.00044076249 0.00065542003 
  304000     2.425176 0.0021615732    284904.75    960675.45 0.00035299987 0.0001165187 0.00015528451 
  305000    2.4250749 0.0021602482    284904.75    964730.47 0.00042269704 8.547296e-05 0.00014792148 
  306000    2.4252074 0.0021607593    284904.75    968741.63 0.00045324366 9.8304008e-05 0.00013411704 
  307000      2.42474 0.0021617574    284904.75    972763.56 0.00044045466 0.00013495645 8.6868834e-05 
  308000    2.4228092  0.002164194    284904.75    976794.57 0.00040298705 -2.1549638e-05 0.00015883484 
  309000    2.4224296  0.002165483    284904.75    980854.93 0.00040525048 -7.6531933e-06 0.00013822815 
  310000    2.4240111  0.002175782    284904.75    984957.21 0.00039673586 -1.2296335e-05 0.00016864569 
  311000     2.424659 0.0021667106    284904.75    989164.15 0.00038999024 -9.3888063e-06 0.00018060676 
  312000    2.4236336 0.0021627333    284904.75    993440.86 0.00032923967 -1.6022118e-05 0.0001968542 
  313000     2.424571  0.002173471    284904.75    997710.25 0.00027172717 4.944873e-05 0.00020146722 
  314000     2.422334 0.0021656045    284904.75    1001967.6 0.00029988427 1.7392695e-05 0.00019974642 
  315000    2.4263506 0.0021781614    284904.75    1006212.3 0.00035048195 8.8144195e-06 0.00021177606 
  316000    2.4241549  0.002163077    284904.75    1010479.7 0.00033762963 2.729334e-05 0.00022166844 
  317000    2.4255867  0.002164026    284904.75    1014736.2 0.00038726109 4.0206998e-05 0.00030029897 
  318000    2.4251491 0.0021648317    284904.75    1018979.1 0.00039106724 8.3458599e-05 0.00023043094 
  319000    2.4261951 0.0021655737    284904.75    1023251.1 0.00041125531 5.9199433e-05 0.00024257061 
  320000    2.4217379 0.0021664335    284904.75    1027482.2 0.00040655805 4.5179536e-05 0.00024173626 
  321000     2.422949 0.0021644579    284904.75    1031710.6 0.00040050169 2.6342088e-05 0.0002307075 
  322000    2.4223943 0.0021651161    284904.75      1035940 0.00039820235 3.5302131e-05 0.00025890681 
  323000    2.4233467 0.0021633818    284904.75    1040202.4 0.00039585642 7.085067e-06 0.00026347424 
  324000    2.4251725 0.0021657788    284904.75    1044497.5 0.00025126116 0.00013491345 0.00023849506 
  325000    2.4264025   0.00216075    284904.75    1048841.6 0.00034283914 0.00013664191 0.00025094472 
  326000    2.4234236 0.0021962799    284904.75    1053248.4 0.00037392227 0.0003653105 0.00016366226 
  327000    2.4252431 0.0021636802    284904.75    1057761.1 0.00031876777 0.00034706926 0.00023801268 
  328000    2.4256704 0.0021599988    284904.75    1062332.7 0.00035406984 0.00034626606 0.00023626357 
  329000    2.4239878 0.0021874129    284904.75      1066933 0.00029191965 0.00035720466 0.0001469192 
  330000     2.421898 0.0022009172    284904.75    1071628.1 0.00031520847 0.00035170337 0.00016351682 
  331000    2.4260231 0.0021780588    284904.75      1076232 0.0003067596 0.00043561243 0.00029609763 
  332000    2.4226229 0.0021646864    284904.75      1080788 0.00019642741 0.00037018646 0.00030679332 
  333000    2.4232875  0.002163947    284904.75      1085403 0.00017555131 0.00034709455 0.00032627045 
  334000     2.421868 0.0021662031    284904.75    1090081.5 0.00016732469 0.00036126619 0.00033099669 
  335000    2.4284862 0.0021631978    284904.75    1094804.6 0.00012421149 0.00035542749 0.00038507857 
  336000    2.4222291 0.0021656095    284904.75    1099553.1 0.00010502075 0.00027466921 0.00036495814 
  337000    2.4254059 0.0021893053    284904.75    1104332.4 0.00011404383 0.00027727168 0.00034339878 
  338000    2.4254662 0.0021626336    284904.75    1109041.5 0.00025640191 0.00011632256 0.00034482859 
  339000    2.4298773 0.0021697264    284904.75    1113704.3 0.00017741389 0.00011220673 0.00027577917 
  340000     2.426837 0.0021732244    284904.75    1118449.7 0.00013723783 0.00013478762 0.00017441368 
  341000    2.4223207 0.0021651398    284904.75    1123147.2 0.00015168589 0.00015397399 0.00022923306 
  342000    2.4227891 0.0021648538    284904.75      1127879 0.00020080606 7.171993e-05 0.00022219432 
  343000    2.4216107 0.0021669973    284904.75    1132604.4 0.00015198772 8.0681532e-05 0.00025625311 
  344000     2.423725 0.0021634678    284904.75    1137332.6 0.00016351292 9.5501613e-05 0.00024994925 
  345000    2.4268375  0.002162838    284904.75    1142091.3 0.00014461035 0.00015341316 0.00011833541 
  346000    2.4246479 0.0021618004    284904.75    1146864.4 0.00018973999 0.00014899549 5.7713201e-05 
  347000     2.424882 0.0021961283    284904.75    1151636.5 0.00020405262 0.00018510064 8.6731075e-05 
  348000    2.4243268 0.0021621372    284904.75    1156449.5 0.00017204961 7.8784313e-05 0.00010290796 
  349000    2.4228914 0.0021640272    284904.75      1161216 0.00018850201 0.00010523269 9.0912941e-05 
  350000    2.4276635 0.0021631194    284904.75    1165968.6 0.00018303719 9.7441104e-05 8.900093e-05 
  351000    2.4292678 0.0022131117    284904.75    1170692.9 0.00015837668 0.00010257367 0.00012165177 
  352000    2.4238082 0.0021628659    284904.75    1175276.7 0.00019484646 6.1719835e-05 9.6878741e-05 
  353000    2.4233963 0.0021629785    284904.75    1179732.4 0.00033280487 -6.4627944e-05 8.1095244e-05 
  354000    2.4252898 0.0021608562    284904.75    1184166.3 0.00030537181 -5.9602118e-05 8.9551542e-05 
  355000    2.4261415 0.0021639155    284904.75    1188679.8 0.00034034581 -0.00013331062 -8.2299512e-06 
  356000    2.4241336 0.0021634281    284904.75    1193232.9 0.00034064347 -0.00013754565 -2.257259e-05 
  357000    2.4254003 0.0021631977    284904.75    1197773.6 0.00036571797 -0.00022778073 7.2610543e-05 
  358000    2.4231594 0.0021645321    284904.75    1202334.8 0.00035332683 -0.00025859216 6.9761596e-05 
  359000    2.4258033 0.0021611359    284904.75      1206929 0.00029335885 -0.00029030664 1.8028834e-06 
  360000    2.4216647 0.0021670169    284904.75    1211251.1 0.00028590976 -0.00027144741 0.00017948208 
  361000    2.4261676 0.0021634432    284904.75    1215376.5 0.00033494089 -0.00031669258 0.00019212534 
  362000    2.4247615 0.0021617775    284904.75      1219486 0.00038371825 -0.00022239562 0.00023362339 
  363000    2.4246444 0.0021623306    284904.75    1223615.4 0.00060195639 -0.00025152764 0.00033515585 
  364000     2.423237 0.0021640939    284904.75    1227660.1 0.00058939222 -0.00022418122 0.00034377738 
  365000    2.4242162 0.0021634132    284904.75    1231705.6 0.00057658859 -0.00021936624 0.00034207064 
  366000    2.4252564 0.0021617017    284904.75    1235853.6 0.00060595766 -0.00012852612 0.00028523542 
  367000    2.4266821 0.0021592993    284904.75    1239990.8 0.0005587949 -9.9105463e-05 0.00030559674 
  368000    2.4230767 0.0021643602    284904.75    1244173.2 0.00053790877 -5.8269435e-05 0.00033098333 
  369000    2.4276129 0.0021633139    284904.75    1248302.3 0.00045265984 -3.6160924e-05 0.00027046941 
  370000     2.424628 0.0021672155    284904.75    1252438.7 0.00027548537 -0.00015559031 -5.5797688e-05 
  371000    2.4220846 0.0021653572    284904.75    1256654.3 0.0002297823 -0.00014977249 -3.9147014e-05 
  372000    2.4261089  0.002162391    284904.75    1260915.6 0.00025358788 -0.00015459474 -7.5442253e-05 
  373000    2.4228745 0.0021640799    284904.75    1265056.8 0.00028892334 -2.7859595e-05 -7.9398018e-05 
  374000    2.4265734 0.0021858855    284904.75    1269035.6 0.00027338871 -4.883665e-05 -3.9316515e-05 
  375000    2.4274679 0.0021684847    284904.75    1273002.2 0.00027565779 -0.00023984041 7.2577416e-06 
  376000    2.4281189 0.0021738679    284904.75    1276919.6 0.00035699763 -0.00035828569 6.345697e-05 
  377000    2.4224064 0.0021650702    284904.75    1280747.8 0.00035806025 -0.00040183506 0.00010474963 
  378000    2.4186272 0.0022144505    284904.75    1284608.2 0.00038816874 -0.00051074808 0.0001673718 
  379000    2.4224029 0.0021654743    284904.75    1288393.8 0.00039519592 -0.00057359996 0.00019579293 
  380000    2.4241351 0.0021954258    284904.75    1292230.1 0.00035795332 -0.00052110692 0.00017269407 
  381000     2.422686 0.0021648548    284904.75      1295955 0.00034926261 -0.00052635735 7.3192568e-05 
  382000    2.4239484 0.0021800783    284904.75    1299694.3 0.00038341483 -0.00048953849 9.4116959e-05 
  383000    2.4241853 0.0021623738    284904.75    1303352.3 0.00041137814 -0.00052373162 5.399193e-05 
  384000    2.4224057 0.0021933667    284904.75    1306948.9 0.00038980344 -0.00053356575 2.7225069e-05 
  385000    2.4282772 0.0021589477    284904.75    1310485.3 0.00041963701 -0.00054082971 0.00010982426 
  386000    2.4217094 0.0021966171    284904.75    1314112.9 0.00037744771 -0.00037529309 0.00012458947 
  387000    2.4226116 0.0021651398    284904.75    1317753.7 0.00035141762 -0.00035056354 0.00013200191 
  388000    2.4228871 0.0021968808    284904.75    1321451.9 0.0002671145 -0.0003712722 0.00019121631 
  389000    2.4279725 0.0021651588    284904.75    1325171.3 0.00027683303 -0.00035177966 0.0001332594 
  390000     2.424043  0.002163916    284904.75    1328941.6 0.00021432177 -0.00038250104 0.00012067372 
  391000    2.4231527 0.0021638827    284904.75    1332761.4 0.00020338594 -0.00036033915 2.2846173e-05 
  392000     2.425007 0.0021732915    284904.75    1336601.1 0.00013061875 -0.00035382466 3.602692e-05 
  393000    2.4237731 0.0021622555    284904.75    1340335.2 0.00019351564 -0.0003809314 9.7073873e-05 
  394000    2.4229654  0.002163954    284904.75    1344141.2 0.00024244236 -0.00036077044 8.6922104e-05 
  395000    2.4225936 0.0021648897    284904.75    1348025.6 0.00024987795 -0.00035683139 9.3290154e-05 
  396000    2.4245598 0.0021617741    284904.75    1351901.5 0.00031321184 -0.00035146524 0.00012455331 
  397000    2.4240525 0.0021623805    284904.75    1355760.3 0.00027225653 -0.00033221252 0.0001550844 
  398000      2.42619 0.0021598309    284904.75    1359658.1 0.0002193073 -0.00037152145 0.00027052651 
  399000    2.4247539 0.0021650057    284904.75      1363591 0.00023386616 -0.00037814439 0.00024635378 
  400000    2.4278428 0.0021705059    284904.75    1367511.3 0.0002173011 -0.00033715763 0.00013235882 
  401000    2.4245945 0.0021656518    284904.75    1371475.9 0.00025317861 -0.00034052619 0.00015295733 
  402000    2.4268625 0.0021597305    284904.75    1375456.9 0.00036526293 -0.00033124809 0.00013290939 
  403000    2.4234426 0.0021630874    284904.75    1379324.7 0.00033470875 -0.00036864281 8.1399348e-05 
  404000    2.4238417  0.002165029    284904.75    1383203.7 0.00035698298 -0.00038570116 0.00013186804 
  405000    2.4238642 0.0021640257    284904.75    1387139.5 0.00037135544 -0.00037568023 0.00012819195 
  406000    2.4229965 0.0021644209    284904.75    1391136.9 0.00039665793 -0.00038227642 0.00010848537 
  407000    2.4238074 0.0021767556    284904.75    1395159.4 0.00042174341 -0.00047324454 9.7758405e-05 
  408000    2.4248648  0.002179855    284904.75    1399080.8 0.00037804598 -0.00043906918 0.00012925041 
  409000    2.4065733 0.0023025792    284904.75    1403001.5 0.00044345944 -0.00059240518 0.00023400613 
  410000    2.4222278 0.0021655747    284904.75    1406935.8 0.00036420108 -0.0004925058 0.0001376635 
  411000    2.4255622 0.0021733908    284904.75    1410917.6 0.00040042914 -0.00052663052 0.00012002699 
  412000    2.4278143 0.0021695334    284904.75    1414977.6 0.00041362312 -0.00061866662 0.00019195295 
  413000    2.4231561 0.0021645775    284904.75    1419069.7 0.00043684927 -0.00057104391 0.00020356298 
  414000     2.428147 0.0021661739    284904.75    1423156.3 0.00042729024 -0.0005534991 0.00021795351 
  415000    2.4223486 0.0021657748    284904.75    1427275.9 0.00046226291 -0.00054451652 0.00018608353 
  416000    2.4266529 0.0021770642    284904.75    1431469.4 0.00048550487 -0.00052864425 0.00015713365 
  417000    2.4245825 0.0021619488    284904.75      1435705 0.00047375906 -0.00053047697 0.00023686396 
  418000    2.4235876 0.0021637816    284904.75    1439996.4 0.00040831055 -0.00052062992 0.00020080228 
  419000    2.4224376 0.0021899867    284904.75    1444179.5 0.00047139205 -0.00046813696 0.00021018013 
  420000    2.4228142 0.0021640481    284904.75    1448388.2 0.00043421309 -0.00045733705 6.9043129e-05 
  421000    2.4247498 0.0021618632    284904.75    1452661.1 0.00039589433 -0.00046720973 8.2361654e-05 
  422000    2.4221829 0.0021656467    284904.75    1456890.4 0.00039515023 -0.00046958907 1.3841371e-05 
  423000    2.4216114 0.0021669691    284904.75    1461104.2 0.00041144194 -0.00052508952 6.3271417e-05 
  424000    2.4234312 0.0021653224    284904.75    1465219.8 0.00030579561 -0.00045899583 1.7279865e-05 
  425000     2.422992 0.0021638605    284904.75    1469330.6 0.00026347173 -0.00047751029 5.4473771e-05 
  426000    2.4266112 0.0021606576    284904.75    1473442.9 0.00021728434 -0.00049796215 6.7202284e-05 
  427000    2.4233339 0.0021631045    284904.75    1477599.4 0.00019852219 -0.00048577976 0.00010811815 
  428000    2.4239616 0.0021636713    284904.75    1481659.8 0.00033019247 -0.00048529109 0.00012219728 
  429000    2.4254476 0.0021640001    284904.75    1485701.3 0.00030428739 -0.00048275202 8.7921516e-05 
  430000    2.4220138 0.0021658382    284904.75    1489755.9 0.00030023217 -0.00032758044 9.8120119e-05 
  431000    2.4242024 0.0021625641    284904.75      1493853 0.00028158463 -0.00029635758 9.1529378e-05 
  432000    2.4249561  0.002162054    284904.75    1498027.5 0.00032147002 -0.00032186014 9.5787514e-05 
  433000    2.4266495 0.0021625987    284904.75    1502251.3 0.00035745719 -0.00028667376 5.0853043e-05 
  434000    2.4284198  0.002161898    284904.75    1506465.1 0.00036757946 -0.00024693076 3.7797396e-05 
  435000     2.421597 0.0021668916    284904.75    1510724.1 0.00035468527 -0.00027985189 2.3613029e-05 
  436000    2.4233089 0.0021880199    284904.75    1514923.8 0.00046047013 -0.0002064547 9.8828369e-05 
  437000    2.4258376 0.0021602615    284904.75    1519157.5 0.00050824378 -0.0002426369 1.7096443e-05 
  438000    2.4256905 0.0021618758    284904.75    1523365.1 0.00055089725 -0.00031756789 -1.6525502e-05 
  439000    2.4233099 0.0021650417    284904.75    1527561.8 0.00053561798 -0.0003982743 4.0202967e-05 
  440000    2.4249219 0.0021614792    284904.75    1531820.7 0.00050934427 -0.00040209146 6.0028776e-05 
  441000    2.4236901 0.0021635459    284904.75    1536209.8 0.00048528407 -0.00038464863 6.945028e-05 
  442000    2.4239026 0.0021655366    284904.75    1540644.9 0.00042111322 -0.00032622892 0.0001164084 
  443000    2.4234734 0.0021640256    284904.75    1545092.9 0.00038882213 -0.00023564666 0.00012608208 
  444000    2.4234181 0.0021644332    284904.75      1549452 0.00041216921 -0.0002298792 7.3934258e-05 
  445000    2.4215439 0.0021672327    284904.75    1553772.8 0.00041374794 -0.00023058323 8.0624391e-05 
  446000    2.4235487 0.0021807434    284904.75    1558105.4 0.00042251161 -0.0002138131 9.6669429e-05 
  447000    2.4223794 0.0021650065    284904.75    1562457.8 0.00040819482 -0.00027217401 0.0001010001 
  448000     2.425824 0.0021622113    284904.75    1566854.5 0.00026601563 -0.00024072867 -2.1364957e-05 
  449000    2.4200845 0.0022066551    284904.75    1571249.7 0.00036056868 -0.00010567795 -0.00012616941 
  450000    2.4247365 0.0021767042    284904.75      1575716 0.00020363992 -0.0002240736 -0.00021260619 
  451000    2.4230179   0.00216405    284904.75    1580181.2 0.0001868847 -0.00019616046 -0.00023843399 
  452000    2.4222812 0.0021655934    284904.75    1584552.3 0.00023510704 -0.00018787476 -0.00023921827 
  453000    2.4241002 0.0021626988    284904.75    1588946.9 0.00020378924 -0.00020842365 -0.00024778642 
  454000    2.4221169 0.0021656893    284904.75    1593413.7 0.00022267982 -0.00025058977 -0.00025012742 
  455000    2.4266421  0.002168326    284904.75    1597901.4 0.00025654492 -0.00019699839 -0.00026829895 
  456000    2.4236295 0.0021636304    284904.75      1602341 0.00018364254 -0.00016228283 -0.00026864357 
  457000    2.4252173 0.0021619743    284904.75    1606740.3 0.00016021901 -0.00021439365 -0.00031422367 
  458000    2.4240278 0.0021643982    284904.75    1611202.9 0.0002053403 -0.0001737062 -0.000294713 
  459000    2.4258894 0.0021671834    284904.75    1615713.4 0.00022291813 -0.00017055411 -0.0003119517 
  460000    2.4269292 0.0021740292    284904.75    1620313.5 0.00021222194 -0.00017931013 -0.00032242656 
  461000    2.4224706 0.0021653549    284904.75    1624995.7 0.00017716402 -7.6996685e-05 -0.00030874125 
  462000     2.424242 0.0021847646    284904.75    1629740.9 0.00014468297 -6.9674354e-05 -0.00037322407 
  463000    2.4233476  0.002163843    284904.75    1634507.6 7.5206092e-05 -8.0824681e-05 -0.00037593428 
  464000    2.4244829 0.0021617277    284904.75    1639295.6 0.00011618309 -6.6549836e-05 -0.00038160295 
  465000    2.4217627 0.0021664108    284904.75      1644124 0.00011765983 -6.5929421e-05 -0.00035563055 
  466000    2.4218461 0.0021664936    284904.75    1648925.2 0.00013204364 -0.00011351767 -0.00032589851 
  467000    2.4241745 0.0021636394    284904.75    1653731.3 0.00012820107 -0.00012570063 -0.00032416427 
  468000     2.425749 0.0021713771    284904.75    1658528.5 0.00016929301 -8.5847264e-05 -0.00034253101 
  469000    2.4248367  0.002162487    284904.75    1663385.5 7.0258469e-05 -7.1275778e-05 -0.00025628095 
  470000    2.4250038 0.0021879796    284904.75    1668283.5 5.8150495e-05 -6.4305834e-05 -0.00022868318 
  471000    2.4260444 0.0021626887    284904.75    1673250.8 8.567585e-05 -4.7623683e-05 -0.00028155866 
  472000    2.4244294 0.0022019711    284904.75    1678144.4 0.00014195535 -0.00010266495 -0.00025024274 
  473000    2.4261293  0.002210073    284904.75    1683032.1 0.00010356319 -0.00012736988 -0.0002808557 
  474000    2.4238674 0.0021642048    284904.75    1687859.8 0.00012147514 -0.00019861053 -0.00021582699 
  475000    2.4249207 0.0021630841    284904.75    1692630.8 0.00012877742 -0.00019372474 -0.0002274148 
  476000    2.4249016 0.0021689016    284904.75    1697381.8 5.1011224e-05 -0.00028138506 -0.00012867282 
  477000    2.4274115 0.0021589033    284904.75    1702123.8 5.3942886e-05 -0.00031912393 -8.4048671e-05 
  478000    2.4250506 0.0021984065    284904.75    1706753.5 4.9079267e-05 -0.00019597751 -0.00017102937 
  479000    2.4274194 0.0021656529    284904.75      1711024 9.2212906e-06 -0.00024543279 -0.00014537696 
  480000    2.4222076 0.0022291944    284904.75    1715295.6 0.00012991326 -0.00020201487 -0.00013287117 
  481000    2.4299931 0.0021728393    284904.75    1719596.3 1.7728602e-05 -0.00020960615 -0.00017279325 
  482000    2.4235795 0.0021632566    284904.75    1723917.3 1.9536436e-05 -0.00023138711 -0.00016270177 
  483000    2.4300497 0.0021628638    284904.75    1728266.5 3.5455774e-05 -0.00018967661 -0.00022700183 
  484000     2.423829 0.0021633366    284904.75    1732541.3 8.7543447e-05 -0.00013757022 -0.00015236748 
  485000    2.4274547 0.0021781819    284904.75    1736697.3 0.00016710956 -9.9482162e-05 -5.8526216e-05 
  486000     2.428445 0.0021712894    284904.75    1740813.3 0.00016246118 -0.00024239312 -5.7641817e-05 
  487000     2.426435 0.0021655384    284904.75    1744919.2 0.0001111932 -0.00016389681 -3.0478967e-05 
  488000    2.4258742 0.0021609755    284904.75    1749007.9 4.090689e-05 -9.4004845e-05 2.0931241e-05 
  489000      2.42482 0.0021673227    284904.75    1753328.6 2.5440101e-05 -0.00013635577 7.0028716e-05 
  490000    2.4221816  0.002165958    284904.75    1757655.9 2.9806505e-05 -9.694793e-05 8.5065386e-05 
  491000    2.4259691 0.0021602567    284904.75    1761989.9 5.6086067e-05 -4.3198729e-05 0.00010786272 
  492000    2.4253686 0.0021608696    284904.75    1766347.8 -4.2828182e-05 -6.1492001e-05 0.00010433425 
  493000     2.427265  0.002208356    284904.75    1770690.4 -0.00023682092 6.5083352e-05 3.1407398e-05 
  494000    2.4263817 0.0021713467    284904.75    1775096.7 -6.5015039e-05 -5.9992141e-05 0.00011430586 
  495000    2.4252818 0.0021621173    284904.75    1779562.9 4.2026614e-06 -0.00011192557 9.0213037e-05 
  496000    2.4288557 0.0021627797    284904.75    1784034.5 5.897331e-05 -0.00011603377 0.00010317816 
  497000    2.4258362 0.0021608655    284904.75    1788556.9 1.0866894e-05 -7.3251719e-05 0.00013489207 
  498000    2.4276728 0.0021617499    284904.75    1793172.9 8.353719e-05 -0.00017655734 0.00017121033 
  499000    2.4303971 0.0021683216    284904.75      1797745 4.4457464e-05 -0.00020103227 0.00017374161 
  500000    2.4267326 0.0021746299    284904.75    1802353.3 9.9241146e-05 -0.00022853166 0.00014479297 
  501000    2.4289023 0.0021680262    284904.75    1806993.2 3.6419449e-05 -0.00029486931 0.00014494558 
  502000    2.4271116 0.0021607636    284904.75    1811662.9 6.5901752e-05 -0.00028163356 0.00013257956 
  503000    2.4286681 0.0021669203    284904.75    1816398.7 5.5239984e-05 -0.00027250824 0.00011639503 
  504000    2.4251962 0.0021659546    284904.75    1821187.2 5.6068463e-05 -0.00022861728 0.00015291864 
  505000    2.4274084 0.0021617587    284904.75    1826022.3 3.4335741e-05 -0.00024066701 0.00016638842 
  506000     2.426087 0.0021603664    284904.75      1830923 3.7712475e-05 -0.00027147066 0.00015983021 
  507000     2.432121 0.0021580841    284904.75    1835856.7 3.5505623e-05 -0.00028429039 0.00012254934 
  508000    2.4267189 0.0021620337    284904.75    1840764.1 3.0085603e-05 -0.00028708884 0.00010715484 
  509000    2.4240326 0.0022084434    284904.75    1845684.7 2.3254676e-05 -0.00020309731 0.0001088721 
  510000    2.4248021 0.0021651371    284904.75    1850653.9 -6.3813779e-05 -0.00034539133 0.0002867335 
  511000    2.4237802 0.0021650405    284904.75    1855633.2 2.4277678e-05 -0.00033477247 0.00029360166 
  512000    2.4276091 0.0021597752    284904.75    1860677.8 1.1404095e-05 -0.00035118502 0.00027179102 
  513000    2.4318038 0.0021666668    284904.75    1865682.3 4.5440414e-05 -0.00031282307 0.00030040414 
  514000    2.4238484 0.0021635806    284904.75    1870515.6 1.9416354e-05 -0.00025099794 0.00034164684 
  515000     2.425158 0.0021606551    284904.75    1875230.9 4.8467338e-05 -0.00030157113 0.00031341056 
  516000    2.4233259 0.0021632249    284904.75    1879975.1 3.1326156e-05 -0.00033498244 0.00035961758 
  517000    2.4281531 0.0021592619    284904.75    1884893.2 6.9550066e-06 -0.00033269671 0.00031927129 
  518000    2.4211159 0.0022047873    284904.75    1889679.9 -6.2665897e-05 -0.00037965776 0.00026557474 
  519000    2.4281323 0.0021646199    284904.75      1894414 -4.5418767e-05 -0.00025538463 0.00026166222 
  520000    2.4238189   0.00216371    284904.75      1899269 -3.6804659e-05 -0.00028767635 0.00023223511 
  521000    2.4220288 0.0021661816    284904.75    1904032.4 -0.00011397314 -0.00022029617 0.00026136468 
  522000    2.4248727 0.0021625334    284904.75    1908759.4 -0.00010849085 -0.00017775498 0.00030393092 
  523000    2.4267139 0.0021598958    284904.75    1913433.9 -7.9180524e-05 -0.00014411685 0.00031675978 
  524000    2.4280307 0.0021778745    284904.75    1918036.1 -0.0001103033 -5.3838092e-05 0.00029502601 
  525000    2.4254589   0.00216673    284904.75    1922763.4 -5.0659313e-05 -4.358781e-05 0.00037821612 
  526000    2.4238317 0.0021855832    284904.75    1927608.7 6.8955767e-06 0.00011125186 0.00035623208 
  527000    2.4269513  0.002162256    284904.75      1932433 -1.5955778e-05 8.6834066e-05 0.00040328053 
  528000    2.4249967 0.0021822842    284904.75    1937306.8 -0.00013044489 0.00015021392 0.00039298764 
  529000    2.4241785  0.002162276    284904.75    1942244.6 -7.3060165e-05 0.00016404332 0.00039151228 
  530000    2.4242279  0.002178284    284904.75    1947156.7 -1.9722641e-05 0.00013754134 0.00046841647 
  531000    2.4257042 0.0021635278    284904.75    1952039.1 -2.8713585e-06 0.00012711078 0.0004110026 
  532000    2.4275558 0.0021696059    284904.75    1956916.2 3.074357e-05 0.00012535553 0.0004334096 
  533000     2.428906 0.0021581163    284904.75    1961797.3 5.7070223e-05 0.00011154128 0.00043690056 
  534000    2.4299267 0.0021643532    284904.75    1966723.9 3.2253473e-05 9.4616811e-05 0.00043632036 
  535000    2.4232646 0.0021635149    284904.75    1971523.5 1.2477193e-05 0.00014757321 0.00045115237 
  536000    2.4247016 0.0021662372    284904.75      1976265 5.2783079e-06 0.00014265522 0.00045909318 
  537000    2.4228741 0.0021899767    284904.75    1981050.6 -3.9141539e-05 0.00016214035 0.00030055152 
  538000    2.4265203 0.0021819953    284904.75      1985855 3.1978924e-05 4.0313486e-05 0.00041184255 
  539000     2.427693  0.002163063    284904.75    1990647.5 6.1070373e-06 8.3158587e-05 0.00038172106 
  540000    2.4282375 0.0021586982    284904.75    1995217.9 0.00015396965 -3.4603814e-05 0.00043836476 
  541000    2.4268334 0.0021610552    284904.75    1999858.2 0.00014212084 -2.4287739e-05 0.00039740294 
  542000    2.4289858  0.002157839    284904.75      2004512 0.00012454539 1.5940022e-05 0.00026449661 
  543000    2.4282382 0.0021591441    284904.75    2009167.5 3.524436e-05 -4.9473608e-06 0.00024207376 
  544000     2.425422 0.0021628288    284904.75    2013811.2 2.0736708e-06 -1.3224978e-05 0.00028040848 
  545000    2.4252867 0.0021635763    284904.75    2018443.7 -2.5500812e-05 1.3199679e-05 0.00022308449 
  546000    2.4272144 0.0021609029    284904.75    2023100.2 -2.9787323e-05 2.1700542e-05 0.0002119828 
  547000     2.424851 0.0021639919    284904.75    2027896.4 -3.7156147e-05 0.00011618422 0.0002683969 
  548000    2.4239465 0.0022133776    284904.75    2032808.1 -2.5395949e-05 0.00011378001 0.00020008318 
  549000     2.424231 0.0021649049    284904.75    2037626.1 -8.6992967e-05 0.0001997405 0.00025723961 
  550000    2.4245851 0.0021912466    284904.75    2042411.8 -6.8238661e-05 0.00028068715 0.00027859696 
  551000    2.4246021 0.0021642092    284904.75      2047345 -6.4183654e-05 0.00023769319 0.00029197654 
  552000    2.4246583 0.0021639455    284904.75    2052204.9 -3.6164636e-05 0.0002455133 0.00029133637 
  553000    2.4289875 0.0022274005    284904.75    2057030.5 -7.4913515e-05 0.00032637336 0.00025167451 
  554000    2.4259939  0.002161005    284904.75    2061764.4 -2.8889283e-05 0.00032484037 0.00026341283 
  555000    2.4273733 0.0021689653    284904.75    2066442.9 -6.3379899e-05 0.00030084464 0.00019884872 
  556000    2.4254138 0.0021628361    284904.75    2071035.1 -5.7690322e-05 0.00024994752 0.0002422118 
  557000    2.4242156 0.0021939461    284904.75    2075701.4 -4.7787957e-05 0.00041281296 0.00022920315 
  558000    2.4219537 0.0022057972    284904.75    2080317.6 5.0095834e-05 0.00039660488 0.00027276175 
  559000    2.4286361 0.0021662133    284904.75      2084840 8.8157783e-05 0.00032774259 0.00029324652 
  560000    2.4287981  0.002162681    284904.75    2089319.9 6.8111577e-05 0.00025934805 0.00025228267 
  561000    2.4276949 0.0021626109    284904.75    2093812.5 3.1219273e-05 0.00027143473 0.00025099749 
  562000    2.4238473 0.0021643169    284904.75    2098368.6 4.2305581e-05 0.00025892726 0.00031010676 
  563000    2.4279225 0.0021610112    284904.75    2102960.8 0.00010595579 0.00030222458 0.00035944617 
  564000    2.4246207 0.0021625801    284904.75    2107615.3 9.9996284e-05 0.00032789796 0.00041122299 
  565000     2.424514 0.0021627284    284904.75    2112322.8 0.00012703001 0.00032329228 0.00036505474 
  566000    2.4271882 0.0021596966    284904.75    2117084.5 8.8467135e-05 0.00035248702 0.00032083526 
  567000    2.4234066 0.0021643514    284904.75    2121944.7 0.00011992004 0.00031530473 0.00028450719 
  568000    2.4241621 0.0021627857    284904.75      2126877 0.00013076771 0.00034799323 0.0003119834 
  569000    2.4269072 0.0021617182    284904.75    2131797.5 0.00019001452 0.0003166615 0.00037416063 
  570000    2.4259236 0.0021633027    284904.75    2136625.8 0.00015484021 0.00041007009 0.00040577482 
  571000     2.433185 0.0021658761    284904.75    2141425.3 0.00015595946 0.00043221217 0.00045332653 
  572000    2.4265013 0.0021625705    284904.75    2146122.7 0.00016592425 0.00047476767 0.00057532999 
  573000    2.4274792 0.0021573993    284904.75    2150693.8 0.00024287123 0.00043908564 0.00057914252 
  574000    2.4257354 0.0021681584    284904.75    2155231.4 0.00031354869 0.00043070899 0.00064036971 
  575000     2.423897  0.002163077    284904.75    2159757.2 0.00034585915 0.0004127766 0.00072983427 
  576000    2.4256711 0.0021604898    284904.75    2164265.6 0.0003765255 0.00041137659 0.00073979848 
  577000    2.4239901 0.0021635051    284904.75    2168745.2 0.00038248202 0.0003611635 0.00073681265 
  578000    2.4271545 0.0021681137    284904.75    2173233.9 0.00031818649 0.00037112641 0.00079227198 
  579000    2.4253453 0.0021644461    284904.75      2177731 0.00021456349 0.00041943253 0.00074113719 
  580000    2.4330883 0.0021674412    284904.75    2182190.2 0.00030356013 0.00051076043 0.00075417344 
  581000    2.4286637 0.0021701444    284904.75      2186671 0.00017234866 0.00056774265 0.0006474003 
  582000     2.427509 0.0021621179    284904.75    2191187.6 0.00021562284 0.00046573657 0.00059067827 
  583000     2.429783 0.0021633027    284904.75      2195683 0.00031317324 0.00041871851 0.00059768231 
  584000    2.4240877 0.0021637843    284904.75    2200164.6 0.00027736441 0.0004131219 0.00060630229 
  585000    2.4262915 0.0021644675    284904.75    2204681.8 0.00029029761 0.00043575555 0.00063395558 
  586000    2.4245443 0.0021677008    284904.75    2209171.5 0.00030969116 0.00037677861 0.00062116219 
  587000    2.4285922 0.0021608269    284904.75    2213668.4 0.00034400013 0.00039189999 0.00059166892 
  588000    2.4245823 0.0021642218    284904.75    2218103.9 0.00031170488 0.00038830852 0.00058268922 
  589000    2.4254431 0.0021687835    284904.75    2222569.6 0.00031348839 0.00038284116 0.00058256265 
  590000    2.4319222 0.0021617879    284904.75    2227111.8 0.00025299353 0.00035859186 0.00058279896 
  591000    2.4274223  0.002160029    284904.75    2231407.9 0.00022848839 0.00032782191 0.00073997649 
  592000    2.4284071 0.0021609518    284904.75    2235553.3 0.00024269555 0.00032124332 0.00071628259 
  593000    2.4263325 0.0021669369    284904.75    2239767.7 0.00032895965 0.00023563135 0.00071060178 
  594000    2.4246536 0.0021646951    284904.75    2244015.2 0.00032055062 0.00023818426 0.00070559098 
  595000    2.4257241 0.0021614364    284904.75    2248267.8   0.00033023 0.00023190385 0.00078821438 
  596000     2.427277 0.0021691922    284904.75      2252487 0.00032155166 0.00030944761 0.00067372102 
  597000    2.4265362 0.0021663619    284904.75    2256697.9 0.00030518328 0.00029359077 0.00067205582 
  598000    2.4251531  0.002165907    284904.75    2260939.1 0.0002647451 0.00034193019 0.00063797367 
  599000    2.4292388 0.0021868969    284904.75    2265237.5 0.00015336409 0.00035956131 0.00058939772 
  600000    2.4238806 0.0021648637    284904.75    2269530.9 0.00016911057 0.00030412937 0.0006037563 
  601000    2.4245833 0.0021662545    284904.75    2273860.5 0.00020583813 0.00037777361 0.0005511748 
  602000    2.4268901 0.0021639405    284904.75      2278255  0.000187931 0.00036628238 0.00054372675 
  603000    2.4331107 0.0021638912    284904.75    2282697.2 0.00021071952 0.00041986123  0.000537414 
  604000    2.4301531 0.0021652028    284904.75    2287019.3 0.00030004813 0.00042418466 0.00046172336 
  605000    2.4301188 0.0021831235    284904.75    2291188.2 0.00027098418 0.00038797507 0.00043038807 
  606000    2.4274448 0.0021627871    284904.75    2295288.8 0.00022580101 0.00036106345 0.00045225752 
  607000    2.4247218 0.0021650485    284904.75    2299494.4 0.00022110066 0.00039171894 0.00043211503 
  608000    2.4228556 0.0021647516    284904.75    2303700.4 0.00029945452 0.00038518441 0.00037935616 
  609000    2.4215597 0.0021669623    284904.75    2307951.5 0.00037964965 0.00038824994 0.00027851113 
  610000    2.4227668 0.0021642187    284904.75    2312313.2 0.00038902826 0.00039362723 0.00029660172 
  611000    2.4241117 0.0021722312    284904.75      2316714 0.00040524264 0.00040510741 0.00028123368 
  612000    2.4268426 0.0021681617    284904.75    2321191.9 0.00032195583 0.00046619128 0.00018051801 
  613000    2.4264175 0.0021660438    284904.75    2325743.2 0.00029389804 0.00047385272 0.00018106896 
  614000    2.4216465 0.0021666954    284904.75    2330106.7 0.00034593026 0.0004615165 2.3618766e-05 
  615000    2.4246119 0.0021717489    284904.75      2334408 0.00033473502 0.00038738201 -1.4548175e-05 
  616000    2.4239731 0.0021737993    284904.75    2338722.9 0.00033110141 0.00038057235 -6.721211e-06 
  617000    2.4242403 0.0021631459    284904.75    2343096.1 0.00032902933 0.00043917998 -8.2948702e-05 
  618000    2.4267799 0.0021820136    284904.75    2347420.5 0.00029484773 0.00046293618 -8.7647575e-05 
  619000    2.4218185 0.0021661744    284904.75    2351820.6 0.00029976622 0.00037966347 1.8430468e-06 
  620000    2.4267908 0.0021625119    284904.75    2356365.1 0.00026561839 0.00040749869 6.1614711e-05 
  621000    2.4232674 0.0021635655    284904.75    2360767.1 0.00036181083 0.00049543418 4.4398243e-05 
  622000    2.4242195 0.0021618104    284904.75      2365250 0.00034596145 0.00047644817 4.5814642e-05 
  623000    2.4241539 0.0021814163    284904.75    2369642.9 0.00045203799 0.00045902756 1.1191704e-05 
  624000    2.4263135 0.0021769994    284904.75      2374073 0.00037945001 0.0004539714 6.5879585e-05 
  625000    2.4233636 0.0021637416    284904.75    2378496.9 0.00044187743 0.00034622461 2.9952638e-05 
  626000    2.4231483 0.0021644603    284904.75    2382847.8 0.00050743953 0.0004286366 -0.00014305427 
  627000    2.4226753 0.0021648621    284904.75    2387096.9 0.00051154815 0.00043134411 -0.00012319743 
  628000    2.4225551 0.0021650718    284904.75    2391363.7 0.00046024098 0.0004746473 -0.00012156215 
  629000    2.4232207 0.0021635797    284904.75    2395643.7 0.00032977165 0.00057089196 -6.8276377e-05 
  630000    2.4227304 0.0021646952    284904.75    2400018.8 0.00027923866 0.00057254605 -0.00010396612 
  631000    2.4218887 0.0021665303    284904.75    2404444.1 0.00028682683  0.000564289 -0.00010182872 
  632000    2.4245595 0.0021777564    284904.75    2408812.1 0.00030772538 0.0005720195 -7.2707932e-05 
  633000    2.4238254  0.002163945    284904.75    2413148.2 0.00029577479 0.00053195747 -0.00022205888 
  634000    2.4293222  0.002198535    284904.75    2417526.5 0.00023032128 0.00056856898 -0.00012605938 
  635000    2.4300119 0.0021648755    284904.75    2421933.1 0.00025676561 0.00047672905 -0.0001811779 
  636000    2.4237458 0.0021626105    284904.75    2426305.2 0.00024925307 0.00049495232 -0.00014427117 
  637000    2.4236137 0.0021918446    284904.75      2430671 0.00021140365 0.00058333034 -0.00019796761 
  638000    2.4229811 0.0021649206    284904.75    2435055.3 0.00021461841 0.00059653397 -0.00017944069 
  639000    2.4240622 0.0021628603    284904.75    2439451.8 0.00022076717 0.00057685163 -0.00017003428 
  640000    2.4262534 0.0021611231    284904.75    2443817.8 0.00023355956 0.00057100093 -0.00020260353 
  641000    2.4228647 0.0021642503    284904.75    2448067.3 0.00019684372 0.00057992377 -0.0001965296 
  642000    2.4223922 0.0021653593    284904.75    2452357.9 0.00019930366 0.00060684806 -0.00021756149 
  643000    2.4311751 0.0021763043    284904.75    2456568.2   0.00022433 0.0005814297 -8.0490122e-05 
  644000    2.4220821 0.0021661943    284904.75      2460852 0.00022090195 0.00063232465 -0.00012382724 
  645000    2.4271768 0.0021789952    284904.75    2465162.4 0.00021512187 0.00075305352 -0.00012430575 
  646000    2.4277573 0.0021817197    284904.75    2469346.2 0.00031263053 0.00075719311 -7.8810746e-05 
  647000    2.4235704 0.0021639055    284904.75    2473421.2 0.0001794587 0.00077502753 -0.00015896982 
  648000    2.4251279 0.0021620077    284904.75    2477452.1 0.00021751877 0.00075750099 -0.00015202486 
  649000    2.4240278 0.0021630384    284904.75      2481352 0.00026803533 0.00079906935 -0.00012727381 
  650000    2.4285041 0.0021620941    284904.75    2485195.1 0.00018918942 0.00074313714 2.2867132e-05 
  651000    2.4327218 0.0021669218    284904.75    2488995.5  0.000132986 0.00067709537 3.8254422e-05 
  652000    2.4253741 0.0021628335    284904.75    2492764.2 0.00013121908 0.00069368618 5.7473523e-05 
  653000    2.4033844 0.0023282108    284904.75    2496572.9 0.00049738913 0.00090347524 3.4845612e-05 
  654000    2.4241297 0.0021634138    284904.75    2500542.8 0.00026900927 0.00070892128 0.00025299933 
  655000    2.4251489 0.0021609673    284904.75    2504409.9 0.00022514759 0.00072770366 0.00027415856 
  656000    2.4222236 0.0021657291    284904.75    2508324.8 0.00021756237 0.00072842399 0.00024772128 
  657000    2.4243759 0.0021626102    284904.75    2512290.8 0.00022895784 0.00073634958 0.00025255594 
  658000    2.4222505 0.0021659973    284904.75    2516352.1 0.00022696413 0.00072374916 0.00025842012 
  659000    2.4270506 0.0021656145    284904.75      2520476 0.00022346463 0.00071434329 0.00028502539 
  660000    2.4231602 0.0021642647    284904.75    2524568.9 0.0002696166 0.00067060076 0.0003644569 
  661000    2.4240392 0.0021626824    284904.75      2528747 0.0002851169 0.00065763466 0.00035448792 
  662000    2.4256491 0.0021618994    284904.75    2532952.8 0.00023705361 0.00064774848 0.00033474863 
  663000    2.4247991  0.002162359    284904.75      2537203 0.00025530533 0.00058546222 0.00035076662 
  664000     2.425994 0.0021804361    284904.75    2541477.3 7.163235e-05 0.00056555538 0.00036280597 
  665000    2.4262238  0.002161094    284904.75    2545871.6 6.5938261e-05 0.00053076211 0.00027205945 
  666000    2.4221663 0.0021658313    284904.75    2550280.4 -6.6551729e-05 0.00049196905 0.00020307779 
  667000    2.4233759 0.0021635554    284904.75    2554590.6 -9.8114088e-05 0.00046016143 0.00022557742 
  668000    2.4226389 0.0021650728    284904.75    2558830.3 -6.1669371e-05 0.00046367909 0.00023780358 
  669000    2.4272894 0.0021742616    284904.75    2563124.7 -2.2507164e-05 0.0004712042 0.00024660508 
  670000     2.424793 0.0021633679    284904.75    2567465.6 -5.7682775e-05 0.00045687678 0.00025251882 
  671000    2.4238857 0.0021639965    284904.75    2571782.2 -4.1049163e-06 0.00042971046 0.00028708115 
  672000    2.4235764 0.0021639532    284904.75    2576054.3 1.2285098e-05 0.00042554943 0.00025946764 
  673000    2.4217519 0.0021662866    284904.75    2580420.2 1.5050998e-05 0.00037534605 0.00029136807 
  674000    2.4245587 0.0021821894    284904.75    2584835.6 9.2340158e-05 0.00034662551 0.00033221984 
  675000    2.4247914 0.0021612808    284904.75      2589299 2.9512342e-06 0.00041168576 0.0003675023 
  676000    2.4225188 0.0021651351    284904.75      2593793 -2.4111127e-05 0.00038295069 0.00035060013 
  677000    2.4270173 0.0021717874    284904.75    2598400.1 -1.2599799e-05 0.00030184146 0.00032861252 
  678000    2.4233788 0.0021640822    284904.75    2602895.3 -6.0394294e-05 0.00024001775 0.00033854457 
  679000    2.4251636 0.0021707211    284904.75    2607392.3 -2.7309329e-05 0.00021428672 0.00033908868 
  680000    2.4235767 0.0021649504    284904.75    2611936.1 -2.9735832e-05 0.00020499382 0.00033848099 
  681000    2.4232518 0.0021637482    284904.75      2616555 -1.6241169e-05 0.00015288299 0.00033350371 
  682000    2.4259672 0.0021606443    284904.75      2621386 6.6702236e-05 0.00011218851 0.00031196782 
  683000    2.4232048 0.0021643473    284904.75      2626163 0.00019351201 0.00011225485 0.00023169422 
  684000    2.4244251 0.0021718535    284904.75    2630877.9 0.00019718406 0.00012045978 0.00026987778 
  685000    2.4240973 0.0021630748    284904.75    2635684.1 0.0001022451 3.7878333e-06 0.00026523529 
  686000    2.4234023 0.0021641215    284904.75    2640498.3 0.00014039091 3.882419e-05 0.0002315103 
  687000    2.4289955 0.0021655068    284904.75    2645356.1 0.00012086055 -0.00010729164 0.00031482298 
  688000    2.4229071 0.0021649577    284904.75    2650180.1 0.0001663494 -8.7364568e-05 0.00029198598 
  689000    2.4262589 0.0021615124    284904.75    2655016.2 0.00014064227 -0.0001303787 0.00024181411 
  690000    2.4241679  0.002163332    284904.75    2659885.6 0.0001190992 -0.0001335095 0.00021739222 
  691000    2.4260252 0.0021718427    284904.75    2664834.3 0.00013398725 -7.6591334e-05 0.00025561526 
  692000     2.426079 0.0021641981    284904.75    2669767.8 0.00016725952 -0.00011586349 0.00025880887 
  693000    2.4225903 0.0022129207    284904.75    2674650.2 0.00013636703 -0.00020038277 0.00014918363 
  694000    2.4254665 0.0021724413    284904.75    2679763.5 0.00020868995 -0.00020160765 0.00015586787 
  695000    2.4251166 0.0021613957    284904.75    2684861.7 0.0002240792 -0.0001723056  0.000231766 
  696000    2.4246376 0.0021672353    284904.75    2690103.3 0.00028814842 -0.00015494507 0.00024263962 
  697000    2.4254393 0.0021604231    284904.75      2695315 0.00029944331 -0.00015648841 0.00027260809 
  698000    2.4268898 0.0021595263    284904.75    2700648.7 0.00030834926 -0.00014967438 0.0002701451 
  699000    2.4234488 0.0021642085    284904.75    2705984.3 0.00030947133 -0.00018504916 0.00024518404 
  700000    2.4281154 0.0021613671    284904.75    2711343.8  0.000382024 -0.00020559664 0.00023210576 
  701000    2.4238612  0.002163525    284904.75    2716668.6 0.00040988083 -0.00020583875 0.00030587272 
  702000    2.4303839 0.0021618966    284904.75    2722048.9 0.00043939491 -0.00022765003 0.00027691848 
  703000    2.4260646 0.0021625733    284904.75    2727495.5 0.00043298866 -0.00026305283 0.00030121913 
  704000     2.426769 0.0021600844    284904.75    2732973.1 0.00045001833 -0.00028679899 0.00022591122 
  705000    2.4275594 0.0021701892    284904.75    2738583.2 0.00038526634 -0.00034591956 0.00023063407 
  706000    2.4260028 0.0021600764    284904.75    2744345.3 0.00027858732 -0.00030438061 0.00023946022 
  707000    2.4230559 0.0021645129    284904.75    2750250.1 0.00027593194 -0.000295981 0.00023125869 
  708000    2.4253494 0.0022082295    284904.75    2756103.4 0.00029881117 -0.00046442648 0.00021213833 
  709000     2.419776 0.0022860398    284904.75    2761973.3 0.00034467714 -0.00062614431 -2.977586e-05 
  710000    2.4294344 0.0021704343    284904.75    2767667.1 0.00022281093 -0.00055478218 0.00013484177 
  711000    2.4251718 0.0021617016    284904.75    2773364.6 0.00026200875 -0.00052967791 0.00014409148 
  712000    2.4254861 0.0021712927    284904.75    2778942.4 0.00023344285 -0.00047810339 0.0002932573 
  713000     2.425825 0.0021605235    284904.75    2784474.1 0.00021943817 -0.00054568317 0.00036514757 
  714000    2.4230672 0.0021964284    284904.75    2790230.2 0.00026967384 -0.00054173322 0.00032725925 
  715000    2.4250349 0.0021631116    284904.75    2795924.9 0.00026217167 -0.00054227833 0.00032699077 
  716000    2.4271671 0.0021601722    284904.75    2801810.3 0.00036325791 -0.00066144048 0.00031333429 
  717000    2.4243981 0.0021629091    284904.75    2807816.5 0.00034124587 -0.0006347638 0.0002898093 
  718000    2.4267327 0.0021615117    284904.75    2813867.8 0.00028274617 -0.00059825346 0.00027333871 
  719000    2.4250317 0.0021612043    284904.75    2819888.8 0.00022857027 -0.00065250795 0.00021868109 
  720000    2.4282468 0.0021586813    284904.75    2825795.3 0.00021194713 -0.00064534798 0.00018804851 
  721000     2.427687 0.0021667534    284904.75    2831600.4 0.00023524124 -0.00064387547 0.00015893189 
  722000    2.4300294 0.0021669018    284904.75    2837450.8 0.00022414201 -0.00063161269 0.00016735501 
  723000    2.4252895  0.002202342    284904.75    2843268.7 0.00048611883 -0.00061825135 0.00013939499 
  724000    2.4295972 0.0021735944    284904.75    2849009.4 0.00029281333 -0.000570725 4.0006599e-05 
  725000    2.4292931 0.0021714234    284904.75    2854832.4 0.00023665772 -0.00034126389 3.9371375e-05 
  726000    2.4292638  0.002158134    284904.75    2860583.3 0.00030047372 -0.00032318903 2.1960554e-05 
  727000    2.4300219 0.0021812306    284904.75    2866377.4 0.0003656431 -0.00027038598 -6.8374508e-06 
  728000     2.424829 0.0021610589    284904.75    2872174.3 0.00044899573 -0.00041710367 0.00011515032 
  729000    2.4269784 0.0021638985    284904.75      2878027 0.00040805916 -0.00039369032 0.00013101661 
  730000     2.427594 0.0021625046    284904.75    2883951.7 0.00041257423 -0.00037925551 0.00016146913 
  731000    2.4259608  0.002160313    284904.75    2889941.8 0.00044737993 -0.00036410582 0.00014407376 
  732000    2.4261175  0.002167381    284904.75    2895851.3 0.00054198505 -0.00017915987 0.00016115618 
  733000    2.4226302 0.0022024865    284904.75    2901783.4 0.00051024803 -0.00020734856 9.6700001e-05 
  734000     2.427165 0.0021594837    284904.75    2907519.6 0.00052851225 -0.00013558839 0.00012130572 
  735000    2.4264907 0.0021591241    284904.75      2913162 0.00040280788 -0.00016733748  0.000191326 
  736000     2.427031 0.0021678961    284904.75    2918786.6 0.00038827885 -0.00015534422 0.0001924587 
  737000    2.4255879 0.0021927566    284904.75    2924443.9 0.00032463542 -0.00026737406 0.00028990033 
  738000    2.4241588 0.0021845016    284904.75      2930187 0.00046785989 -0.00011453545 0.00015534659 
  739000    2.4255714 0.0021611919    284904.75    2935914.2 0.00051286622 -0.000157379 0.00020905247 
  740000    2.4245469  0.002162136    284904.75    2941562.8 0.0005111146 -0.00020727623 0.00014727515 
  741000    2.4262784 0.0021700528    284904.75    2947135.2 0.00051368839 -0.00021271554 0.00013477588 
  742000    2.4250939 0.0021633724    284904.75    2952762.2 0.00050547979 -0.00020295672 0.00016568248 
  743000    2.4291716 0.0021615477    284904.75    2958386.7 0.0005528671 -0.00018729806 0.00019690347 
  744000    2.4263684 0.0021655399    284904.75      2964016 0.00061781452 -0.00023605101 0.00019163969 
  745000    2.4310138 0.0021987133    284904.75    2969660.4 0.00036980615 -0.00019999478 9.567814e-05 
  746000    2.4270361 0.0021648492    284904.75    2975285.4 0.00050842195 -0.00027714629 0.00018645929 
  747000    2.4282922 0.0021567021    284904.75    2980916.3 0.00052798651 -0.00019193289 8.8669605e-05 
  748000    2.4233387 0.0021632096    284904.75    2986491.6 0.00054321796 -0.00025701685 0.00011138682 
  749000    2.4258668 0.0021633268    284904.75    2992151.8 0.00049597122 -0.00022378063 0.00010158706 
  750000    2.4262145 0.0021597129    284904.75    2997809.2 0.00045811811 -0.00023337174 3.416993e-05 
[...]
  846000    2.4295974 0.0021697297    284904.75    3445003.4 0.00031010585 0.00014191694 -0.00022920356 
  847000    2.4223833  0.002165482    284904.75      3448985 0.00015690404 0.00011500314 -0.00026898159 
  848000    2.4223153 0.0022187033    284904.75    3453029.4 0.00019607554 3.9221647e-05 -0.00039637211 
  849000    2.4246984 0.0021633949    284904.75    3457155.2 0.00018305849 7.1770253e-05 -0.00030897925 
  850000    2.4231134 0.0021639834    284904.75    3461331.1 0.00014469821 7.9793439e-05 -0.00030416725 
  851000    2.4285065 0.0021987395    284904.75    3465477.1 0.00016823842 7.5965643e-05 -0.00032342903 
  852000    2.4222138 0.0021652563    284904.75    3469484.2 0.00017457147 8.0619417e-05 -0.00031778905 
  853000    2.4222206 0.0021656141    284904.75    3473450.7 0.00025883133 0.0001626113 -0.00045670915 
  854000    2.4241914 0.0021624451    284904.75    3477411.5 0.00030406376 6.7134274e-05 -0.00052846089 
  855000    2.4241676 0.0021663549    284904.75    3481412.1 0.00036097288 0.00013593118 -0.00055852988 
  856000    2.4229928 0.0021637414    284904.75    3485488.3 0.00036516616 9.6987511e-05 -0.00058886998 
  857000    2.4244536 0.0021693449    284904.75    3489671.3 0.00021562171 4.2826201e-05 -0.00051667823 
  858000     2.425431 0.0021616848    284904.75    3494040.8 0.00032415601 7.3959291e-05 -0.00047305818 
  859000    2.4264597 0.0021619998    284904.75    3498584.4 0.00040626162 0.00010053197 -0.00043040304 
  860000    2.4224924  0.002164809    284904.75    3503200.1 0.00038948044 0.00010777613 -0.00040011665 
  861000    2.4218521 0.0021662174    284904.75      3507717 0.00040951075 8.6721966e-05 -0.00037802727 
  862000    2.4216222  0.002166841    284904.75    3511921.5 0.00032926478 9.5655439e-05 -0.00030575159 
  863000    2.4250935 0.0021705733    284904.75    3516062.3 0.00032107661 8.7210344e-05 -0.00030023035 
  864000    2.4249076 0.0021646859    284904.75    3520073.2 0.0003430711 8.3001081e-05 -0.00031827928 
  865000    2.4227602 0.0021638652    284904.75    3523886.7 0.00033631411 2.095795e-05 -0.00024812701 
  866000    2.4259709 0.0022091827    284904.75    3527593.5 0.00033492233 -0.00016682893 -0.00023324303 
  867000    2.4260011 0.0021650575    284904.75    3531249.1 0.00033141966 -1.191317e-05 -0.00018268417 
  868000    2.4206787 0.0022253248    284904.75    3534994.6 0.00050273746 -5.9341552e-05 -0.00011664555 
  869000    2.4226257 0.0021649193    284904.75    3538763.2 0.00037789312 -0.00013006071 -9.7036937e-05 
  870000    2.4225489 0.0021653365    284904.75    3542529.8 0.00041352955 -0.00012850092 -0.00011702204 
  871000    2.4235654 0.0021634794    284904.75    3546311.4 0.00042873893 -0.00015461096 -0.00012470034 
  872000     2.428584 0.0021780173    284904.75    3550156.5 0.00056655352 -8.2522415e-05 -0.00019663005 
  873000    2.4285585 0.0021589777    284904.75    3553982.7 0.00058671486 -0.00010866775 -0.00017789293 
  874000    2.4233167 0.0021647486    284904.75    3557840.5 0.00056700894 -0.00017306041 -0.00018433087 
  875000    2.4281862 0.0021651624    284904.75    3561720.9 0.00055941286 -0.00015042342 -0.00020140754 
  876000    2.4242229 0.0021620831    284904.75    3565638.2 0.0006039482 -0.00013163637 -0.00017926976 
  877000    2.4255591 0.0021619364    284904.75    3569482.6 0.00060750766 -7.6987363e-05 -0.00015983958 
  878000    2.4240103 0.0021853865    284904.75    3573213.7 0.00062467309 -0.0001816148 -7.3770413e-05 
  879000    2.4244346 0.0021676952    284904.75    3576895.1 0.00054394308 -0.00013745841 -0.000114132 
  880000    2.4244878  0.002164007    284904.75    3580563.9 0.00058362457 -0.00014973854 -0.00020237035 
  881000    2.4271297 0.0021590056    284904.75    3584243.3 0.00051107044 -0.00013347304 -0.00019911222 
  882000    2.4265549 0.0021784127    284904.75    3587804.1 0.0006403029 -6.6110277e-05 3.3842777e-05 
  883000    2.4230164 0.0021641452    284904.75      3591284 0.00065112088 -6.4093443e-06 2.6742668e-05 
  884000    2.4236091 0.0021633205    284904.75      3594612 0.00065845477 3.6239925e-06 4.4419346e-05 
  885000    2.4229703 0.0021644319    284904.75    3597889.4 0.00060568234 1.2703181e-05 -2.606776e-05 
  886000    2.4221903 0.0021652904    284904.75      3601190 0.00061219759 1.4832001e-05 -4.1942415e-05 
  887000    2.4313294 0.0021743494    284904.75    3604391.7 0.00059277213 5.6520293e-05 -6.5163536e-05 
  888000    2.4247738  0.002194567    284904.75    3607607.1 0.00059960405 -0.00033024176 -9.4595404e-05 
  889000    2.4205474 0.0022152453    284904.75    3610684.7 0.00046686677 -0.00016686842 -1.9254988e-05 
  890000    2.4249323 0.0021630317    284904.75    3613836.4 0.00065493027 -0.00016206646 2.9634953e-05 
  891000    2.4239775 0.0021665275    284904.75    3617033.2 0.00062505133 -0.00013506605 -3.6470785e-05 
  892000    2.4284122  0.002171919    284904.75    3620203.1 0.0006862866 -8.1747203e-05 -7.7719759e-05 
  893000      2.42449 0.0021739204    284904.75    3623255.5 0.00064774618 -0.0001536592 -0.00013053213 
  894000    2.4246532 0.0021648333    284904.75      3626238 0.00060971434 -0.0001457501 -8.8355041e-05 
  895000    2.4252241 0.0021619306    284904.75      3629247 0.0005488693 -8.3079591e-05 -4.0630723e-05 
  896000    2.4286503 0.0021592603    284904.75    3632281.8 0.00056416786 -6.7011101e-05 -5.0528078e-05 
  897000    2.4275234 0.0021582462    284904.75    3635306.2 0.00054419146 -7.8869317e-05 -6.7788307e-05 
  898000    2.4246763  0.002162452    284904.75    3638387.4 0.00058007688 -6.5467571e-05 -3.9205295e-06 
  899000    2.4200198 0.0022229845    284904.75    3641502.1 0.00071622805 -0.00028986181 -0.00031956998 
  900000     2.425842 0.0021756571    284904.75    3644671.3 0.00047378494 -4.6024896e-05 -4.3811781e-05 
  901000    2.4263125  0.002171778    284904.75    3647896.3 0.00049964837 -6.795661e-05 -2.1232542e-05 
  902000    2.4270166 0.0021657587    284904.75    3651141.7 0.00050245544 -8.5482501e-05 -3.410006e-05 
  903000    2.4266501 0.0021600178    284904.75      3654452 0.00040636201 -3.2837797e-05 -2.6084367e-06 
  904000     2.425506 0.0021614902    284904.75    3657737.4 0.00042173543 -7.8895839e-05 8.3345944e-05 
  905000    2.4239428  0.002164184    284904.75    3661090.5 0.00045107971 -5.870429e-05 8.8018538e-05 
  906000    2.4250051 0.0021628495    284904.75    3664398.3 0.00049822954 -0.00015058597 5.8630165e-05 
  907000    2.4292878 0.0021717413    284904.75    3667552.7 0.00049566459 -0.00016165415 -6.4813993e-05 
  908000    2.4259324 0.0021647607    284904.75    3670834.1 0.00051277612 -0.00012524304 -1.4617506e-05 
  909000    2.4264386 0.0021638964    284904.75    3674179.7 0.00051697926 -0.000138376 -1.767463e-05 
  910000    2.4277294  0.002178688    284904.75    3677561.7 0.00040135715 -0.0001568626 2.5852009e-05 
  911000    2.4207122 0.0022235903    284904.75    3680820.6 0.00028859818 1.3295655e-05 -0.00016097282 
  912000    2.4252874 0.0021730103    284904.75    3684049.5 0.0004574411 -0.00016644494 -2.7974562e-05 
  913000    2.4256951 0.0021754397    284904.75    3687309.5 0.00044855062 -0.00014845582  8.16921e-06 
  914000     2.429421 0.0021911888    284904.75    3690665.7 0.00045416387 -0.00022832448 7.2796751e-05 
  915000    2.4249328 0.0021755635    284904.75    3694333.6 0.00047451736 -0.00015836444 -2.6631608e-05 
  916000    2.4244766 0.0021735329    284904.75    3698057.1 0.0004803446 -0.00016219733 1.3137244e-06 
  917000    2.4261828 0.0021703344    284904.75    3701849.7 0.00046232547 -0.00016097067 2.172148e-05 
  918000    2.4279485 0.0021586051    284904.75    3705659.4 0.00044225733 -0.00018807031 8.4483819e-05 
  919000    2.4255413 0.0022022482    284904.75    3709682.7 0.00040913236 -0.00024891887 0.00013836544 
  920000    2.4253211 0.0021767231    284904.75    3713764.8 0.00042059876 -0.00024994798 0.00010127437 
  921000     2.424592 0.0021631943    284904.75    3717823.5 0.00041142239 -0.00023643493 0.00010705836 
  922000    2.4236967 0.0021633985    284904.75      3721965 0.00048202056 -0.00024698053 6.7385849e-05 
  923000    2.4275693 0.0021660727    284904.75    3726021.9 0.0004557959 -0.0003474048 8.8456768e-05 
  924000    2.4235382 0.0021633795    284904.75    3730007.2 0.0005000736 -0.00037594914 0.00010193778 
  925000     2.424883 0.0021622536    284904.75    3734001.4 0.00049440412 -0.00037380146 7.0756744e-05 
  926000    2.4262826 0.0021623177    284904.75    3738085.8 0.00049503144 -0.00047359532 0.00012903743 
  927000    2.4281431 0.0021644122    284904.75    3742336.7 0.00047367609 -0.00047795097 0.00012542055 
  928000    2.4246238 0.0021713721    284904.75    3746638.3 0.00049482416 -0.00047065597 0.00014832314 
  929000     2.424163 0.0021621437    284904.75    3750966.3 0.00051883641 -0.00045841604 0.00010368919 
  930000    2.4256618 0.0021635692    284904.75    3755251.8 0.00058171946 -0.00045343968 7.4565713e-05 
  931000    2.4253711    0.0021663    284904.75    3759612.9 0.00051804004 -0.00048943145 0.00011091362 
  932000    2.4242768 0.0021621263    284904.75    3763901.1 0.00052274626 -0.00049367525 4.0855416e-05 
  933000    2.4263591 0.0021648219    284904.75    3768130.3 0.00051237774 -0.00048198794 4.6205122e-05 
  934000    2.4237436 0.0021636593    284904.75      3772349 0.0005274092 -0.00050524346 7.357483e-05 
  935000    2.4233569 0.0021636184    284904.75    3776894.1 0.00057291063 -0.00054089395 0.00014110559 
  936000    2.4220534 0.0022191826    284904.75    3781510.1 0.00048079093 -0.00037771654 0.00010691872 
  937000    2.4246418 0.0021616775    284904.75    3786225.7 0.00048095256 -0.0003203682 0.00015347738 
  938000    2.4288755 0.0021579087    284904.75    3790992.3 0.00063030925 -0.00035693042 2.462082e-05 
  939000    2.4314522 0.0021654751    284904.75    3795605.7 0.00062716665 -0.00026850405 2.9877368e-05 
  940000    2.4236162 0.0021642183    284904.75    3800054.8 0.00068900373 -0.00025219942 -6.7248007e-05 
  941000    2.4223786 0.0021654981    284904.75    3804504.6 0.00070083735 -0.0002368009 -6.7757198e-05 
  942000     2.424738 0.0021615919    284904.75      3808909 0.00060459451 -0.00025224275 -6.4231289e-05 
  943000    2.4068435 0.0022964257    284904.75    3813222.5 0.0010087009 -0.00013592845 -0.00036270102 
  944000    2.4226158 0.0021647414    284904.75    3817118.9 0.00065493033 -0.0003432937 3.5114312e-05 
  945000    2.4258378 0.0021648932    284904.75    3821058.1 0.00063376654 -0.00037551301 6.2365738e-05 
  946000    2.4242397 0.0021628623    284904.75    3825116.5 0.0006718298 -0.00033952787 4.9084577e-05 
  947000    2.4253044 0.0021652405    284904.75    3829396.2 0.0006544924 -0.00034087026 4.6882305e-05 
  948000    2.4266694 0.0021643705    284904.75    3833734.9 0.00048553515 -0.00029635706 0.00013339075 
  949000    2.4224499 0.0021654638    284904.75      3838190 0.00044725604 -0.0003044641 0.00014405461 
  950000    2.4225844 0.0021647261    284904.75    3842730.7 0.00044122462 -0.00029361751 0.0001423773 
  951000    2.4226271  0.002164811    284904.75    3847403.7 0.00041078218 -0.00030799268 0.00012596974 
  952000    2.4254169  0.002163621    284904.75    3852182.4 0.00054304428 -0.00028878657 9.2517666e-05 
  953000     2.424475 0.0021672697    284904.75    3857134.6 0.00060047127 -0.00026224926 8.6327336e-05 
  954000    2.4252422 0.0021758255    284904.75    3862221.1 0.00058899482 -0.00021301324 0.00013542457 
  955000    2.4254142 0.0021708359    284904.75    3867298.1 0.00061790854 -0.00010433393  0.000253159 
  956000    2.4245074 0.0021619366    284904.75    3872294.2 0.00063227611 -0.00010702307 0.00026139373 
  957000    2.4225703 0.0021649457    284904.75    3877342.5 0.00078109109 -1.7223474e-05 0.00020900866 
  958000    2.4241828 0.0021628166    284904.75      3882684 0.00080164498 -2.5253078e-05 0.00020468833 
  959000    2.4216158 0.0021668563    284904.75    3888162.9 0.00077692303 -6.9929455e-05 0.00010807651 
  960000    2.4233712 0.0021638922    284904.75    3893586.1 0.00080064486 -9.607876e-06 0.00018501131 
  961000     2.422079 0.0021657215    284904.75    3898858.7 0.00079298645 1.557825e-05 0.00017520304 
  962000    2.4246006 0.0021621417    284904.75    3904105.6 0.00076302785 6.4594509e-05 0.00020253476 
  963000    2.4280732 0.0021591098    284904.75    3909166.1 0.00075602797 0.00010144966 0.00024631658 
  964000    2.4240033 0.0021623218    284904.75    3914278.2 0.00078134751 9.0846338e-05 0.00027556994 
  965000    2.4249784  0.002163554    284904.75      3919454 0.00076871408 0.00011882669 0.00023306803 
  966000    2.4245728 0.0021623708    284904.75    3924625.8 0.00074248147 0.00020971422 0.00032473227 
  967000    2.4283125 0.0021741781    284904.75    3929865.1 0.00071451617 0.00023501672 0.00039663362 
  968000    2.4242294 0.0021784948    284904.75    3935171.2 0.00072606687 0.00026600344 0.00032028016 
  969000    2.4243322 0.0021623844    284904.75    3940377.5 0.00071523854 0.00027102629 0.00036865188 
  970000    2.4249828 0.0021609711    284904.75    3945644.1 0.00072682296 0.00028302973 0.00037998103 
  971000    2.4259362 0.0021607466    284904.75    3950918.4 0.00066201352 0.00027780366 0.00034771481 
  972000    2.4226722 0.0021648112    284904.75    3956154.2 0.00072934373 0.0002185946 0.00036560821 
  973000    2.4233346 0.0021638863    284904.75    3961313.5 0.00079664102 9.6554037e-05 0.00035504402 
  974000    2.4303652 0.0021713396    284904.75    3966516.1 0.00083414739 7.6507113e-05 0.00030338594 
  975000    2.4292336 0.0021580337    284904.75    3971673.8 0.00085007855 8.4615219e-05 0.00026885741 
  976000     2.422918 0.0021645843    284904.75    3976803.3 0.00080381437 9.173607e-05 0.00024987415 
  977000    2.4246407 0.0021627042    284904.75    3981964.9 0.00086709372 0.00014347586 0.00028519665 
  978000    2.4310458 0.0021798582    284904.75    3987128.7 0.00084060455 0.00013670679 0.00031865854 
  979000    2.4225839 0.0021650635    284904.75      3992099 0.00065144638 9.2512868e-05 0.00020783265 
  980000    2.4290246   0.00217042    284904.75    3997044.2 0.00065910408 0.00010437635 0.00019600054 
  981000    2.4242922 0.0021800056    284904.75    4002087.9 0.00054181567 0.00012197025 9.440617e-05 
  982000    2.4252449   0.00216107    284904.75    4007280.2 0.00061173034 0.00018698869 0.00010055412 
  983000    2.4250027 0.0021651492    284904.75    4012434.3 0.00056959081 0.00021852901 0.00016099345 
  984000    2.4244101 0.0021642325    284904.75      4017552 0.00052335843 0.00017572042 0.00012358126 
  985000    2.4250114 0.0021683387    284904.75    4022623.9 0.00049449342 0.00017471665 0.00012490012 
  986000    2.4239826 0.0021623366    284904.75    4027697.1 0.00052532738 0.00013454213 0.00017076805 
  987000    2.4295881 0.0021661512    284904.75    4032804.1 0.00038599457 0.00015922334 0.0001505487 
  988000    2.4234411 0.0021632157    284904.75    4037468.9 0.00044290384 0.00022379754 0.00017815143 
  989000    2.4276677 0.0021589774    284904.75    4041947.2 0.00049688086 0.00014509455 0.0001040675 
  990000    2.4235232 0.0021973259    284904.75    4046386.8 0.00049200915 0.00022887487 -5.0250978e-05 
  991000     2.426032 0.0021621664    284904.75    4050814.9 0.00053726677 0.00020075059 0.00016785763 
  992000    2.4224084  0.002165043    284904.75    4055342.1 0.00055277628 0.00022202913 0.00016246029 
  993000    2.4260991 0.0021675704    284904.75    4060005.2 0.00056438523 0.00017219755 0.00012905673 
  994000    2.4233773 0.0021641062    284904.75    4064587.9 0.00052226322 0.00027466065 0.00019568101 
  995000    2.4216812 0.0021666179    284904.75    4069211.8 0.00055290077 0.00026713418 0.00027705922 
  996000    2.4258839 0.0021670736    284904.75    4073950.2 0.00053884185 0.00032191084 0.00025638363 
  997000    2.4227272 0.0021655009    284904.75    4078713.4 0.00053964599 0.00027387234 0.00021827746 
  998000    2.4256856  0.002161478    284904.75    4083616.8 0.0005111471 0.0001820969 0.00025214032 
  999000    2.4233996 0.0022189145    284904.75    4088437.9 0.00052043433 0.00019792431 0.00034279849 
 1000000     2.424132 0.0021653691    284904.75    4093080.7 0.00054605447 0.00019304194 0.00034304994 
Loop time of 204.094 on 1 procs for 1000000 steps with 256 atoms

Pair  time (%) = 2.53229 (1.24075)
Neigh time (%) = 15.2018 (7.44844)
Comm  time (%) = 1.74486 (0.854933)
Outpt time (%) = 0.08725 (0.04275)
Other time (%) = 184.527 (90.4131)

Nlocal:    256 ave 256 max 256 min
Histogram: 1 0 0 0 0 0 0 0 0 0
Nghost:    95 ave 95 max 95 min
Histogram: 1 0 0 0 0 0 0 0 0 0
Neighs:    8 ave 8 max 8 min
Histogram: 1 0 0 0 0 0 0 0 0 0

Total # of neighbors = 8
Ave neighs/atom = 0.03125
Neighbor list builds = 77535
Dangerous builds = 19
#	run			10000
	unfix			1
	uncompute		myKE
	uncompute		myPE
	uncompute		myStress
	uncompute		flux
	uncompute		myDis
	unfix			JJ

	next seed
	next iseed
jump lmp.in.gk loop_seed
variable iseed loop 10
variable seed index 11111 22222 33333 44444 55555 66666 77777 88888 99999 11112
clear

# Lennard-Jones
#Prepare Geometry---------------------------------------------------------------
units			lj
atom_style		atomic
read_data		lmp.in.x0.1
  orthogonal box = (0 0 0) to (65.8011 65.8011 65.8011)
  1 by 1 by 1 MPI processor grid
  256 atoms
#Initialize Structure-----------------------------------------------------------
#mass           	1  1.0
#group         		Ar type = 1
#LJ Potentials------------------------------------------------------------------
pair_style		lj/cut 2.5
pair_coeff		* * 1.0 1.0
pair_modify          	shift yes
#pair_modify   	tail no

#Variables----------------------------------------------------------------------
#LJ Parameters
variable    	kB 		equal 1.3806504e-23 	# [J/K] Boltzmann
variable	sigma_Ar 	equal 3.4e-10 		# m
variable	eps_Ar		equal 1.67e-21		# J
variable	mass_Ar		equal 6.63e-26		# kg
variable	tau_Ar		equal 2.1423e-12	# s
#thermo Parameters
variable    	T_melt 		equal 300*(${kB}/${eps_Ar})
variable    	T_melt 		equal 300*(1.3806504000000001236e-23/${eps_Ar})
variable    	T_melt 		equal 300*(1.3806504000000001236e-23/1.6699999999999999942e-21)
variable	T_0K		equal 0.00001
variable	T_2_5K		equal 2.5*(${kB}/${eps_Ar})
variable	T_2_5K		equal 2.5*(1.3806504000000001236e-23/${eps_Ar})
variable	T_2_5K		equal 2.5*(1.3806504000000001236e-23/1.6699999999999999942e-21)
variable	T_5K		equal 5*(${kB}/${eps_Ar})
variable	T_5K		equal 5*(1.3806504000000001236e-23/${eps_Ar})
variable	T_5K		equal 5*(1.3806504000000001236e-23/1.6699999999999999942e-21)
variable	T_10K		equal 10*(${kB}/${eps_Ar})
variable	T_10K		equal 10*(1.3806504000000001236e-23/${eps_Ar})
variable	T_10K		equal 10*(1.3806504000000001236e-23/1.6699999999999999942e-21)
variable	T_15K		equal 15*(${kB}/${eps_Ar})
variable	T_15K		equal 15*(1.3806504000000001236e-23/${eps_Ar})
variable	T_15K		equal 15*(1.3806504000000001236e-23/1.6699999999999999942e-21)
variable	T_300K		equal 300*(${kB}/${eps_Ar})
variable	T_300K		equal 300*(1.3806504000000001236e-23/${eps_Ar})
variable	T_300K		equal 300*(1.3806504000000001236e-23/1.6699999999999999942e-21)

variable   	dt 		equal 0.002
variable	quench_rate	equal 1.0
variable	quench_length 	equal 10000
#kappa parameters
variable    	p 		equal 100000 		# correlation length
variable    	s 		equal 5  		# sample interval
variable    	d 		equal $p*$s 		# dump interval
variable    	d 		equal 100000*$s 		
variable    	d 		equal 100000*5 		

#SED parameters
variable	w_step		equal 2^5
variable	w_total		equal 2^16
variable	t_total		equal 2^18
variable	num_ffts	equal ${t_total}/${w_total}
variable	num_ffts	equal 262144/${w_total}
variable	num_ffts	equal 262144/65536

#------------ RUN TEMP ---------------------------------------------------------------------
variable 	T_run 		equal ${T_300K}
variable 	T_run 		equal 2.4802102994011980819
#------------ RUN TEMP ---------------------------------------------------------------------

log 	log_heat_${iseed}.lammps
log 	log_heat_10.lammps
