
#------------ NVE rescale ---------------------------------------------------------------------

	velocity 		all create ${T_run} ${seed} rot yes dist gaussian
	velocity 		all create 2.6455576526946114058 ${seed} rot yes dist gaussian
	velocity 		all create 2.6455576526946114058 33333 rot yes dist gaussian

	fix 			1 all nve
	fix 			2 all temp/rescale 1 ${T_run} ${T_run} 0.01 1.0
	fix 			2 all temp/rescale 1 2.6455576526946114058 ${T_run} 0.01 1.0
	fix 			2 all temp/rescale 1 2.6455576526946114058 2.6455576526946114058 0.01 1.0
	timestep		${dt}
	timestep		0.0020000000000000000416
	thermo_style  		custom step temp press etotal vol
	thermo			1000
	run             	200000
Memory usage per processor = 2.13486 Mbytes
Step Temp Press TotEng Volume 
       0    2.6455577 0.0024007508   -1.5687558    279726.26 
    1000    2.6419863 0.0021027697    2.9690766    279726.26 
    2000    2.6398086 0.0020717318    3.1096262    279726.26 
    3000    2.6424732 0.0022135562    3.2357973    279726.26 
    4000    2.6363565 0.0023115072     3.205545    279726.26 
    5000     2.643808  0.002206879    3.2505627    279726.26 
    6000    2.6446171 0.0023030026     3.205992    279726.26 
    7000    2.6525882  0.002278345    3.2067043    279726.26 
    8000     2.640789 0.0022099434    3.2216193    279726.26 
    9000    2.6500066 0.0021980324    3.2216981    279726.26 
   10000    2.6476445 0.0022369711    3.2667496    279726.26 
   11000    2.6398763 0.0023198778    3.2509853    279726.26 
   12000    2.6495822 0.0021162658    3.2514113    279726.26 
   13000    2.6406767 0.0022393113    3.2661198    279726.26 
   14000    2.6406218 0.0024391537    3.2996355    279726.26 
   15000    2.6433485 0.0022005348    3.3000438    279726.26 
   16000    2.6425526  0.002199808      3.34481    279726.26 
   17000     2.645888 0.0024362063    3.2984734    279726.26 
   18000    2.6462382 0.0022393432    3.3311042    279726.26 
   19000    2.6449092 0.0022376835     3.381234    279726.26 
   20000    2.6446081 0.0022983583    3.3822566    279726.26 
   21000    2.6464688 0.0022660226    3.3675635    279726.26 
   22000    2.6458064 0.0022901596    3.3829773    279726.26 
   23000    2.6451717 0.0023328229    3.4131039    279726.26 
   24000    2.6437778 0.0023288324    3.3842633    279726.26 
   25000    2.6406329  0.002252417    3.4466303    279726.26 
   26000    2.6413329 0.0022655322    3.4765697    279726.26 
   27000    2.6433314 0.0023666745    3.5066776    279726.26 
   28000    2.6397736 0.0022745027    3.5217599    279726.26 
   29000    2.6473727 0.0023505668    3.5250628    279726.26 
   30000    2.6466405 0.0023083393    3.5095027    279726.26 
   31000    2.6497949 0.0023432515    3.5403505    279726.26 
   32000    2.6396496 0.0022723418    3.5246019    279726.26 
   33000    2.6495021 0.0022568057    3.5447518    279726.26 
   34000    2.6451037 0.0023109083    3.5448071    279726.26 
   35000    2.6528089 0.0023324609    3.5598748    279726.26 
   36000    2.6436241 0.0021996029    3.5445901    279726.26 
   37000    2.6468844 0.0022860138    3.5485403    279726.26 
   38000      2.64653 0.0023518107    3.5787419    279726.26 
   39000    2.6554656 0.0023128963    3.5936633    279726.26 
   40000    2.6423776 0.0022522089    3.5952755    279726.26 
   41000    2.6501618 0.0022397763    3.5799257    279726.26 
   42000    2.6387615 0.0022878632    3.5801618    279726.26 
   43000    2.6429625 0.0023607736    3.5952338    279726.26 
   44000    2.6433429 0.0022348706    3.6120223    279726.26 
   45000    2.6420354 0.0025258859    3.5970811    279726.26 
   46000    2.6462565 0.0023410611     3.596546    279726.26 
   47000    2.6512518 0.0023217996    3.6116498    279726.26 
   48000    2.6412749 0.0023911673    3.6124056    279726.26 
   49000    2.6408608 0.0022979407    3.6281239    279726.26 
   50000    2.6372559  0.002361153    3.6436809    279726.26 
   51000    2.6410993  0.002287478    3.6587172    279726.26 
   52000      2.64746 0.0022674491    3.6586481    279726.26 
   53000    2.6393111 0.0022916439    3.6738078    279726.26 
   54000    2.6472113 0.0023345538    3.6716576    279726.26 
   55000    2.6521877 0.0024024879    3.6715582    279726.26 
   56000    2.6367098 0.0023189641    3.6830361    279726.26 
   57000    2.6433973 0.0023266385    3.6854458    279726.26 
   58000    2.6438156 0.0023722477    3.6850934    279726.26 
   59000    2.6455599 0.0024120204    3.6864711    279726.26 
   60000    2.6409309  0.002393934    3.6864716    279726.26 
   61000    2.6455577 0.0023555161    3.7012914    279726.26 
   62000     2.644238 0.0023809621    3.7168017    279726.26 
   63000    2.6544382 0.0023625497     3.716843    279726.26 
   64000    2.6398002 0.0023560771    3.7168466    279726.26 
   65000    2.6473985 0.0023819367    3.7318463    279726.26 
   66000    2.6403021  0.002375958     3.731817    279726.26 
   67000    2.6508176 0.0024112483    3.7482136    279726.26 
   68000    2.6467834 0.0023656633    3.7338417    279726.26 
   69000     2.651139 0.0023560826    3.7335847    279726.26 
   70000    2.6511783 0.0024011057    3.7346755    279726.26 
   71000    2.6416501 0.0023007266    3.7348783    279726.26 
   72000    2.6393742 0.0023459286    3.7366747    279726.26 
   73000    2.6416637 0.0023498404    3.7527891    279726.26 
   74000    2.6397812 0.0023323796    3.7538597    279726.26 
   75000    2.6464958 0.0023381513    3.7538583    279726.26 
   76000     2.649699 0.0023700791    3.7538599    279726.26 
   77000    2.6456941 0.0024469593    3.7538626    279726.26 
   78000    2.6530304 0.0023842871    3.7689076    279726.26 
   79000    2.6537801 0.0023801694    3.7692322    279726.26 
   80000    2.6534144 0.0023648738    3.7692301    279726.26 
   81000    2.6511523 0.0023961414     3.786249    279726.26 
   82000    2.6490795 0.0023808144    3.7712972    279726.26 
   83000    2.6456673 0.0023755308     3.771375    279726.26 
   84000    2.6473053 0.0023506603      3.78725    279726.26 
   85000    2.6458907 0.0023948977    3.7729387    279726.26 
   86000    2.6479319 0.0024062108    3.7879033    279726.26 
   87000    2.6443803  0.002341599    3.7879047    279726.26 
   88000    2.6496206 0.0023661544    3.7883578    279726.26 
   89000    2.6447896 0.0023698759    3.7893387    279726.26 
   90000    2.6476525 0.0023197558     3.789324    279726.26 
   91000    2.6407777 0.0023656756    3.7893239    279726.26 
   92000    2.6484664 0.0024205075    3.8042958    279726.26 
   93000    2.6506451 0.0023886875    3.8042959    279726.26 
   94000    2.6374177 0.0023540007    3.8043195    279726.26 
   95000    2.6497738 0.0024114208    3.8054122    279726.26 
   96000    2.6493819 0.0023453594    3.8054092    279726.26 
   97000     2.643647 0.0023244235    3.8055037    279726.26 
   98000    2.6454112 0.0023355144    3.8068662    279726.26 
   99000    2.6428511 0.0024111564    3.8068409    279726.26 
  100000    2.6470117 0.0023548463    3.8122631    279726.26 
  101000    2.6472597 0.0024236899     3.812264    279726.26 
  102000    2.6523957 0.0024109201    3.8128196    279726.26 
  103000    2.6419837 0.0023789336    3.8128231    279726.26 
  104000    2.6547233 0.0023806912    3.8278708    279726.26 
  105000    2.6460905 0.0024404121    3.8273486    279726.26 
  106000    2.6486652 0.0023744675    3.8275001    279726.26 
  107000    2.6507089 0.0023912744    3.8275008    279726.26 
  108000    2.6477422 0.0024248397    3.8264764    279726.26 
  109000    2.6529421 0.0023907208    3.8428908    279726.26 
  110000    2.6417251  0.002344355    3.8423216    279726.26 
  111000    2.6427777 0.0023739903    3.8581742    279726.26 
  112000    2.6390093 0.0024796243    3.8587613    279726.26 
  113000    2.6498956 0.0023729804    3.8703995    279726.26 
  114000    2.6486029 0.0024290087    3.8703967    279726.26 
  115000    2.6512263 0.0023682674    3.8703947    279726.26 
  116000    2.6409388 0.0024019389    3.8554015    279726.26 
  117000    2.6462105 0.0024208631    3.8708324    279726.26 
  118000    2.6403004 0.0023913675    3.8708375    279726.26 
  119000    2.6433617 0.0024175428    3.8708372    279726.26 
  120000    2.6416613 0.0023932172     3.868996    279726.26 
  121000     2.648397 0.0023904749    3.8843288    279726.26 
  122000    2.6480768 0.0024511972    3.8843207    279726.26 
  123000    2.6426244 0.0023921074    3.8843186    279726.26 
  124000    2.6449083 0.0023764788    3.8856183    279726.26 
  125000    2.6448847 0.0023888545    3.8846927    279726.26 
  126000    2.6469941 0.0023897403    3.8855194    279726.26 
  127000    2.6362936 0.0024065766    3.8705451    279726.26 
  128000    2.6459796 0.0023701499    3.8701744    279726.26 
  129000    2.6443777 0.0023964143     3.885227    279726.26 
  130000    2.6452617 0.0023858562    3.8852291    279726.26 
  131000    2.6438242 0.0024219268    3.8852279    279726.26 
  132000    2.6440616  0.002435735    3.8852269    279726.26 
  133000    2.6412403 0.0024224649    3.8852298    279726.26 
  134000     2.645123 0.0024029572    3.8868426    279726.26 
  135000    2.6466798 0.0023848491    3.8878286    279726.26 
  136000    2.6447778 0.0023603823    3.8878293    279726.26 
  137000    2.6492723 0.0024204582    3.8889211    279726.26 
  138000     2.645555 0.0024038284    3.8903323    279726.26 
  139000    2.6477449  0.002415364    3.8903324    279726.26 
  140000    2.6475417  0.002384998     3.890334    279726.26 
  141000    2.6480344 0.0023812536    3.8903339    279726.26 
  142000     2.645766 0.0024512464     3.890337    279726.26 
  143000    2.6478419 0.0024362162    3.8907121    279726.26 
  144000    2.6520259 0.0024174025    3.8915982    279726.26 
  145000    2.6427343 0.0023662657     3.892129    279726.26 
  146000    2.6456488 0.0023929092    3.8937612    279726.26 
  147000    2.6491871 0.0023849604    3.9088027    279726.26 
  148000    2.6437356 0.0024261862     3.893833    279726.26 
  149000    2.6438999 0.0024006785    3.8933991    279726.26 
  150000    2.6397362 0.0023914091    3.8937301    279726.26 
  151000    2.6552989 0.0024603968    3.9098846    279726.26 
  152000    2.6399854  0.002380917    3.8953632    279726.26 
  153000    2.6448555 0.0023881719    3.8953631    279726.26 
  154000    2.6483182 0.0023999272    3.8982049    279726.26 
  155000    2.6387073 0.0023849058    3.8982938    279726.26 
  156000    2.6410464 0.0023912691    3.9013714    279726.26 
  157000    2.6508064 0.0023822733    3.9165276    279726.26 
  158000     2.652155  0.002366074    3.9172108    279726.26 
  159000    2.6480752 0.0024010224    3.9172086    279726.26 
  160000    2.6499368 0.0023907785    3.9172088    279726.26 
  161000    2.6539374 0.0024040036    3.9172084    279726.26 
  162000    2.6450946 0.0023849708    3.9021544    279726.26 
  163000    2.6539852 0.0024815242    3.9175307    279726.26 
  164000     2.642032 0.0024154377    3.9022794    279726.26 
  165000    2.6380595 0.0024142403     3.902277    279726.26 
  166000    2.6510207 0.0023968042    3.9171328    279726.26 
  167000    2.6501165 0.0023972158    3.9167587    279726.26 
  168000    2.6481641 0.0024048676     3.916053    279726.26 
  169000    2.6477815 0.0023937014     3.916055    279726.26 
  170000    2.6472005 0.0024165145    3.9160551    279726.26 
  171000    2.6493045 0.0024111509    3.9161294    279726.26 
  172000    2.6452847 0.0023910207    3.9162261    279726.26 
  173000    2.6487884 0.0023994337    3.9155688    279726.26 
  174000    2.6463828 0.0023950397    3.9155718    279726.26 
  175000     2.646724 0.0023827847    3.9156268    279726.26 
  176000     2.649382 0.0023955954    3.9156285    279726.26 
  177000    2.6463339 0.0023962152    3.9156287    279726.26 
  178000    2.6536067 0.0024219896    3.9185401    279726.26 
  179000     2.647651 0.0024267444    3.9175285    279726.26 
  180000    2.6541231 0.0024196324    3.9176054    279726.26 
  181000    2.6458624 0.0024116068    3.9026399    279726.26 
  182000    2.6489809 0.0024018916    3.9178285    279726.26 
  183000    2.6501247  0.002392623    3.9173522    279726.26 
  184000    2.6461277 0.0024081631    3.9023794    279726.26 
  185000    2.6443901 0.0023943631    3.9173639    279726.26 
  186000    2.6447775  0.002432874    3.9173585    279726.26 
  187000     2.641533  0.002471145    3.9181613    279726.26 
  188000    2.6467138 0.0023874066    3.9031563    279726.26 
  189000    2.6476681 0.0024036503     3.920465    279726.26 
  190000    2.6445229 0.0023947162    3.9204621    279726.26 
  191000    2.6452503 0.0023982653     3.920678    279726.26 
  192000    2.6513721 0.0024269208     3.920678    279726.26 
  193000    2.6377418 0.0024050982    3.9057063    279726.26 
  194000    2.6394987 0.0023997941    3.9057793    279726.26 
  195000    2.6432233 0.0025123531    3.9211249    279726.26 
  196000     2.648694 0.0023883234    3.9226135    279726.26 
  197000     2.649312 0.0024119832    3.9255934    279726.26 
  198000    2.6431473 0.0023993537    3.9158716    279726.26 
  199000    2.6513799 0.0024373448    3.9312791    279726.26 
  200000    2.6535947  0.002442871    3.9312785    279726.26 
Loop time of 6.26779 on 1 procs for 200000 steps with 256 atoms

Pair  time (%) = 0.923605 (14.7357)
Neigh time (%) = 3.79393 (60.5306)
Comm  time (%) = 0.360828 (5.75685)
Outpt time (%) = 0.010778 (0.171958)
Other time (%) = 1.17865 (18.8049)

Nlocal:    256 ave 256 max 256 min
Histogram: 1 0 0 0 0 0 0 0 0 0
Nghost:    52 ave 52 max 52 min
Histogram: 1 0 0 0 0 0 0 0 0 0
Neighs:    18 ave 18 max 18 min
Histogram: 1 0 0 0 0 0 0 0 0 0

Total # of neighbors = 18
Ave neighs/atom = 0.0703125
Neighbor list builds = 19996
Dangerous builds = 19972
#	run             	1000
	unfix 			1
	unfix 			2

#------------ NVE -----------------------------------------------------------------------------

	fix 			1 all nve
	timestep		${dt}
	timestep		0.0020000000000000000416
	thermo_style  		custom step temp press etotal vol
	thermo			1000
	run             	100000
Memory usage per processor = 2.13486 Mbytes
Step Temp Press TotEng Volume 
  200000    2.6535947  0.002442871    3.9312785    279726.26 
  201000    2.6548879  0.002410498    3.9312798    279726.26 
  202000    2.6499015  0.002419163    3.9312805    279726.26 
  203000    2.6485043 0.0023933419    3.9312812    279726.26 
  204000    2.6545987 0.0024387404    3.9312805    279726.26 
  205000      2.65011 0.0023974391    3.9312784    279726.26 
  206000    2.6503777 0.0024035464    3.9312762    279726.26 
  207000    2.6523988 0.0024334168    3.9312774    279726.26 
  208000    2.6538853 0.0024169474    3.9312765    279726.26 
  209000     2.650904 0.0024167699    3.9312753    279726.26 
  210000    2.6539554 0.0023887552    3.9312749    279726.26 
  211000    2.6530125 0.0024013061    3.9312705    279726.26 
  212000    2.6582891 0.0023985452    3.9312698    279726.26 
  213000    2.6597512 0.0024006812    3.9312674    279726.26 
  214000    2.6527169 0.0024098231    3.9312652    279726.26 
  215000    2.6504707 0.0023999105    3.9312653    279726.26 
  216000    2.6532011 0.0023949726    3.9312694    279726.26 
  217000    2.6529422 0.0023950863    3.9312661    279726.26 
  218000    2.6529109 0.0024532057     3.931267    279726.26 
  219000    2.6547737 0.0024084631    3.9312641    279726.26 
  220000    2.6494595 0.0023923066    3.9312666    279726.26 
  221000    2.6533004 0.0024079606    3.9312683    279726.26 
  222000    2.6516371 0.0024079474    3.9312697    279726.26 
  223000    2.6526965 0.0024014835     3.931269    279726.26 
  224000    2.6513535 0.0024377238    3.9312658    279726.26 
  225000    2.6531713 0.0024009992    3.9312729    279726.26 
  226000    2.6555987 0.0023927147    3.9312703    279726.26 
  227000    2.6561444  0.002400906      3.93127    279726.26 
  228000     2.652183 0.0024142285    3.9312722    279726.26 
  229000    2.6529729 0.0024446303    3.9312736    279726.26 
  230000    2.6518008 0.0024683189    3.9312774    279726.26 
  231000    2.6572166 0.0024111384    3.9312756    279726.26 
  232000    2.6522213 0.0023937651     3.931276    279726.26 
  233000    2.6510983 0.0023961161    3.9312784    279726.26 
  234000    2.6589727 0.0024170516    3.9312789    279726.26 
  235000    2.6504066 0.0024228598    3.9312799    279726.26 
  236000    2.6464505 0.0024752312    3.9312506    279726.26 
  237000     2.653547 0.0024175269    3.9312802    279726.26 
  238000    2.6485013 0.0023975532    3.9312813    279726.26 
  239000    2.6489798 0.0023927618    3.9312817    279726.26 
  240000    2.6516189 0.0024083973    3.9312812    279726.26 
  241000    2.6578596 0.0024342108    3.9312852    279726.26 
  242000    2.6548927 0.0024714994    3.9312869    279726.26 
  243000    2.6523083  0.002389514    3.9312873    279726.26 
  244000    2.6535706 0.0024261616    3.9312873    279726.26 
  245000    2.6523524  0.002413007    3.9312875    279726.26 
  246000    2.6495838 0.0024212182    3.9312872    279726.26 
  247000    2.6557357 0.0024337969    3.9312851    279726.26 
  248000    2.6538782  0.002395758    3.9312856    279726.26 
  249000    2.6529969 0.0024048471    3.9312884    279726.26 
  250000    2.6528713 0.0023830146    3.9312871    279726.26 
  251000    2.6519152 0.0024057903    3.9312863    279726.26 
  252000    2.6544226 0.0024137514    3.9312841    279726.26 
  253000    2.6571663 0.0024238813    3.9312845    279726.26 
  254000    2.6564601 0.0024256574    3.9312848    279726.26 
  255000    2.6514044 0.0024045248    3.9312846    279726.26 
  256000    2.6533918 0.0024061986    3.9312841    279726.26 
  257000      2.64975 0.0023895517    3.9312829    279726.26 
  258000    2.6504014 0.0024044328    3.9312832    279726.26 
  259000    2.6485483  0.002462709    3.9312764    279726.26 
  260000    2.6474605 0.0024280526    3.9312851    279726.26 
  261000    2.6436228 0.0024014413    3.9312874    279726.26 
  262000    2.6490081 0.0024068399    3.9312882    279726.26 
  263000    2.6434805 0.0024452355    3.9312897    279726.26 
  264000    2.6467978  0.002411294    3.9312859    279726.26 
  265000    2.6462946 0.0023993494    3.9312855    279726.26 
  266000    2.6478214 0.0024141096    3.9312884    279726.26 
  267000    2.6442888 0.0024010807    3.9312898    279726.26 
  268000    2.6483795 0.0023856783    3.9312871    279726.26 
  269000    2.6486555 0.0023934378     3.931288    279726.26 
  270000    2.6426733 0.0024985037    3.9312755    279726.26 
  271000     2.640182 0.0024033348    3.9312862    279726.26 
  272000    2.6393269 0.0024163252    3.9312839    279726.26 
  273000    2.6430793 0.0024093649    3.9312841    279726.26 
  274000    2.6402384 0.0024000326    3.9312855    279726.26 
  275000    2.6395376  0.002418075     3.931287    279726.26 
  276000    2.6442239 0.0023989877    3.9312858    279726.26 
  277000    2.6432925 0.0023963763    3.9312853    279726.26 
  278000    2.6447489 0.0023999004    3.9312846    279726.26 
  279000    2.6353184 0.0024483735    3.9312693    279726.26 
  280000    2.6500191 0.0024039859    3.9312791    279726.26 
  281000    2.6448451 0.0024176003    3.9312817    279726.26 
  282000    2.6424985 0.0024006463    3.9312817    279726.26 
  283000    2.6428999 0.0023955658     3.931282    279726.26 
  284000    2.6398319   0.00242449      3.93128    279726.26 
  285000    2.6430347 0.0024216711    3.9312813    279726.26 
  286000    2.6396272 0.0024037457    3.9312848    279726.26 
  287000    2.6417614 0.0023950567    3.9312839    279726.26 
  288000     2.644525 0.0023966875    3.9312866    279726.26 
  289000    2.6449779 0.0023942881    3.9312854    279726.26 
  290000    2.6452725 0.0024147567    3.9312834    279726.26 
  291000    2.6423231 0.0023895397    3.9312838    279726.26 
  292000    2.6459355 0.0024047834    3.9312843    279726.26 
  293000    2.6431691 0.0024062124    3.9312851    279726.26 
  294000    2.6403562  0.002438724    3.9312836    279726.26 
  295000    2.6430446 0.0024049886     3.931286    279726.26 
  296000    2.6454025 0.0024175183    3.9312886    279726.26 
  297000    2.6454598 0.0023963329    3.9312876    279726.26 
  298000    2.6487993  0.002402163    3.9312845    279726.26 
  299000    2.6409326 0.0024134822     3.931284    279726.26 
  300000    2.6429783 0.0024061241    3.9312843    279726.26 
Loop time of 2.6818 on 1 procs for 100000 steps with 256 atoms

Pair  time (%) = 0.19605 (7.31039)
Neigh time (%) = 1.81531 (67.6898)
Comm  time (%) = 0.173271 (6.461)
Outpt time (%) = 0.005548 (0.206876)
Other time (%) = 0.491627 (18.332)

Nlocal:    256 ave 256 max 256 min
Histogram: 1 0 0 0 0 0 0 0 0 0
Nghost:    74 ave 74 max 74 min
Histogram: 1 0 0 0 0 0 0 0 0 0
Neighs:    13 ave 13 max 13 min
Histogram: 1 0 0 0 0 0 0 0 0 0

Total # of neighbors = 13
Ave neighs/atom = 0.0507812
Neighbor list builds = 9679
Dangerous builds = 6471
#	run             	10000
	unfix 			1

#------------ kappa -------------------------------------------------------------------------
log 	log_kappa_${iseed}.lammps
log 	log_kappa_3.lammps
