	reset_timestep  	0
	fix 			1 all nve
	compute   		myKE all ke/atom
	compute   		myPE all pe/atom
	compute   		myStress all stress/atom virial
	compute   		flux all heat/flux myKE myPE myStress
	variable  		Jx equal c_flux[1]/vol
	variable  		Jy equal c_flux[2]/vol
	variable  		Jz equal c_flux[3]/vol
	fix       		JJ all ave/correlate $s $p $d c_flux[1] c_flux[2] c_flux[3] type auto file J0Jt_${iseed}.dat ave running
	fix       		JJ all ave/correlate 5 $p $d c_flux[1] c_flux[2] c_flux[3] type auto file J0Jt_${iseed}.dat ave running
	fix       		JJ all ave/correlate 5 100000 $d c_flux[1] c_flux[2] c_flux[3] type auto file J0Jt_${iseed}.dat ave running
	fix       		JJ all ave/correlate 5 100000 500000 c_flux[1] c_flux[2] c_flux[3] type auto file J0Jt_${iseed}.dat ave running
	fix       		JJ all ave/correlate 5 100000 500000 c_flux[1] c_flux[2] c_flux[3] type auto file J0Jt_7.dat ave running
#	fix       		JJ all ave/correlate $s $p $d c_flux[1] c_flux[2] c_flux[3] type auto ave running
#	dump			JJ all custom 1000000 J0Jt.dat f_JJ[3] f_JJ[4] f_JJ[5]
	compute 		myDis all msd
	thermo_style 		custom step temp press vol c_myDis[4] v_Jx v_Jy v_Jz
	thermo			1000
	timestep		${dt}
	timestep		0.0020000000000000000416
	run			1000000
Memory usage per processor = 3.6416 Mbytes
Step Temp Press Volume myDis[4] Jx Jy Jz 
       0    2.4370932 0.0021610246    284904.75            0 -0.00016200438 0.00016433225 0.00083054679 
    1000    2.4288832 0.0021682018    284904.75     29.01081 -0.00017170081 0.00013843953 0.00077385161 
    2000     2.429455 0.0021693205    284904.75    115.08313 -0.00021136661 0.00014404986 0.00074492446 
    3000    2.4273382 0.0021645253    284904.75    254.60419 -0.00012305515 -3.2868268e-06 0.00049936951 
    4000    2.4335549 0.0021689282    284904.75     449.9097 -0.00014060384 2.0137126e-05 0.00046174606 
    5000    2.4280077 0.0021620314    284904.75      701.758 -0.00012673517 2.593893e-05 0.00048661784 
    6000     2.428589 0.0021756629    284904.75    1002.8244 -8.2888969e-05 4.1781855e-05 0.00041783113 
    7000    2.4279051 0.0021653581    284904.75    1358.0738 -0.00014002153 7.8262062e-05 0.00048927942 
    8000    2.4291287 0.0021619663    284904.75    1766.3687 -0.00021844073 5.9970295e-05 0.00049816704 
    9000    2.4328482 0.0021582711    284904.75    2226.6319 -0.00019049149 -6.4217412e-06 0.00057881611 
   10000    2.4298151 0.0021782136    284904.75    2732.5831 -0.00018100561 4.8743674e-05 0.0005196377 
   11000    2.4313452 0.0021763781    284904.75     3286.629 -0.00015763475 8.8130226e-05 0.00054602666 
   12000    2.4276915 0.0021644722    284904.75    3887.7228 -0.00017383589 9.2522116e-05 0.00060535948 
   13000    2.4317753 0.0021816514    284904.75    4537.7963 -0.00020001213 6.9096737e-05 0.00061374049 
   14000     2.429493 0.0021760927    284904.75    5236.4466 -0.00016797363 0.00010403934 0.00060004396 
   15000    2.4277516 0.0021642443    284904.75    5987.0393 -0.00016110694 -6.3933321e-06 0.00065710477 
   16000     2.426709 0.0021650856    284904.75    6786.9177 -0.00014787132 4.0144112e-06 0.0006397056 
   17000    2.4318016 0.0021988412    284904.75    7643.6201 -0.00016589823 3.3410247e-05 0.00061372229 
   18000    2.4297567  0.002169977    284904.75    8551.1946 -8.5691994e-05 2.9687934e-05 0.00076474689 
   19000    2.4283153 0.0021624195    284904.75    9490.4301 -0.00015998835 1.5861261e-05 0.00082533897 
   20000    2.4271897 0.0021759316    284904.75    10480.973 -0.00016774986 -2.7188988e-05 0.00077665835 
   21000    2.4307741  0.002162648    284904.75    11516.895 -0.00010073976 -2.0944883e-05 0.00073619732 
   22000    2.4279051 0.0021665662    284904.75    12589.251 -9.479703e-05 -5.655168e-05 0.00076119595 
   23000    2.4287146 0.0021810448    284904.75    13712.633 -8.3659863e-05 -2.3847986e-05 0.00078766791 
   24000    2.4249342 0.0021682812    284904.75    14890.223 -0.00010355892 -3.7272315e-05 0.00077352595 
   25000    2.4245587 0.0022059352    284904.75    16125.809 -6.4790493e-05 -0.00010445238 0.00079069452 
   26000     2.432657 0.0022012967    284904.75    17404.465 -8.8964409e-05 8.2539457e-05 0.00087829848 
   27000    2.4315782  0.002162721    284904.75    18706.507 -5.900056e-05 -4.4133374e-05 0.00075172862 
   28000    2.4292311 0.0021712337    284904.75     20031.98 -8.4159805e-05 -1.0183463e-05 0.00072463626 
   29000    2.4283399 0.0021844904    284904.75    21402.051 -8.3027607e-05 1.3171171e-05 0.00068110746 
   30000    2.4270327   0.00216773    284904.75    22822.166 -7.9526846e-05 2.0939711e-05 0.00067063933 
   31000    2.4343159 0.0021714948    284904.75    24288.819 -0.00010843834 -6.125314e-05 0.00071110045 
   32000     2.427477 0.0021657503    284904.75    25766.909 -0.0001651398 -1.9375811e-05 0.00072634682 
   33000    2.4311804 0.0021658151    284904.75    27277.228 -0.0001208467 -2.5781413e-07 0.00076576283 
   34000    2.4281027 0.0022086545    284904.75    28828.471 -6.1976382e-05 -3.9903269e-05 0.00088049337 
   35000    2.4290668   0.00216542    284904.75    30402.259 -1.005788e-05 -1.2410432e-05 0.00080376965 
   36000    2.4301306 0.0021644349    284904.75    32033.609 -3.8237801e-05 -5.7605691e-05 0.00078086529 
   37000    2.4300187 0.0021653302    284904.75    33720.259 -1.5709397e-05 -4.7916074e-05 0.00080293525 
   38000    2.4298247 0.0021646776    284904.75    35461.365 -4.3029329e-05 -1.9503146e-05 0.00080333512 
   39000    2.4260868 0.0021989018    284904.75    37262.853 -1.8112174e-05 -9.3300542e-05 0.00079056724 
   40000    2.4276357  0.002165886    284904.75    39097.788 8.6451944e-05 0.00010297967 0.00073150828 
   41000    2.4275599 0.0021668033    284904.75    40961.262 3.2433601e-05 8.8212935e-05 0.00067239911 
   42000     2.431442 0.0021641965    284904.75    42840.178 -1.4805041e-05 6.9141145e-05  0.000672566 
   43000    2.4285797 0.0021641092    284904.75    44730.353 5.1750423e-05 9.4785068e-05 0.00066420308 
   44000    2.4255935 0.0021666506    284904.75    46669.351 6.9999428e-05 9.5330109e-05 0.00065702678 
   45000    2.4334236 0.0022298258    284904.75    48653.388  0.000131253 0.00022687387 0.00064688444 
   46000    2.4269523 0.0021643114    284904.75    50644.328 5.7490206e-05 0.00024132441 0.0007104798 
   47000    2.4291822 0.0021810332    284904.75     52673.34 0.00012824109 0.00023906173 0.00072721276 
   48000    2.4302193 0.0021779498    284904.75    54725.405 4.7762805e-05 0.0002427896 0.00075924738 
   49000    2.4271386  0.002174011    284904.75    56798.961 5.9099332e-05 0.00024807791 0.00070626161 
   50000    2.4253464 0.0021675395    284904.75    58896.104 8.2331292e-05 0.00021199421 0.00069953657 
   51000    2.4324078 0.0021674821    284904.75    61039.517 6.7213623e-05 0.00020628653 0.00070444314 
   52000    2.4210038 0.0022589179    284904.75    63244.527 -0.00027675596 1.6822921e-05 0.00059585642 
   53000    2.4271582 0.0022003336    284904.75    65488.678 0.00013695974 0.00021367114 0.00072568071 
   54000    2.4276816 0.0021781336    284904.75    67768.547 0.00024463201 0.00015366899 0.00071178233 
   55000    2.4283361 0.0021637568    284904.75    70057.485 0.0003295658 0.00024438837 0.00074511158 
   56000    2.4277549 0.0021628736    284904.75    72393.896 0.00030072606 0.00018919437 0.00071345973 
   57000    2.4334905 0.0021649971    284904.75    74768.274 0.00036222126 0.00015360794 0.0007007837 
   58000    2.4302796 0.0021620731    284904.75    77181.303 0.00040837276 0.00014922493 0.00068114179 
   59000    2.4271858 0.0022435149    284904.75    79611.811 0.00043039245 0.00010189593 0.00046982815 
   60000    2.4258564 0.0021661566    284904.75    81994.351 0.00033077197 0.00015694388 0.0006009939 
   61000    2.4219136  0.002240872    284904.75    84421.237 0.00045266375 0.00024423001 0.0003213954 
   62000    2.4274337  0.002166162    284904.75    86885.014 0.00025748573 0.00011673767 0.0005553544 
   63000    2.4292455 0.0021622359    284904.75    89390.229 0.00033150518 0.00012621431 0.00060630787 
   64000    2.4287404 0.0021661547    284904.75    91914.504 0.00042824288 5.6539344e-05 0.00070115281 
   65000    2.4298145 0.0021763602    284904.75     94483.24 0.0004378492 7.9505987e-05 0.00073490823 
   66000    2.4286474 0.0021919528    284904.75    97109.455 0.00033059321 0.00012901779 0.00060977065 
   67000    2.4254945 0.0021669427    284904.75     99786.37   0.00039945 4.3206931e-05 0.00067965316 
   68000    2.4275549 0.0021733373    284904.75    102503.26 0.00053446609 7.5015395e-06 0.00069217844 
   69000    2.4270782 0.0021664529    284904.75    105270.55 0.00050471275 3.7843614e-05 0.00071115492 
   70000    2.4282476 0.0021747198    284904.75    108100.86 0.00052967336 6.1454421e-05 0.00073136886 
   71000    2.4263177 0.0021875281    284904.75    110986.95 0.00052322783 5.9901878e-05 0.0007048778 
   72000    2.4303017 0.0021734491    284904.75    113910.32 0.00043037021 0.00016486199 0.00063578883 
   73000    2.4320629 0.0021722719    284904.75    116845.84 0.00047061117 9.2391531e-05 0.00055465304 
   74000    2.4280684 0.0021769769    284904.75    119786.93 0.00030220181 0.0002380512 0.00061470551 
   75000    2.4262583 0.0021658526    284904.75    122702.11 0.00026078175 0.00018229009 0.00060873355 
   76000    2.4287852 0.0021883105    284904.75    125656.32 0.00018871678 0.00021522992 0.00067511778 
   77000     2.430086 0.0021624093    284904.75    128647.93 0.00016216703 0.00021474857 0.00060269045 
   78000    2.4270909 0.0021846112    284904.75     131685.7 0.0002337582 0.0002142046 0.00067455974 
   79000    2.4252675  0.002167326    284904.75    134756.27 0.00023076153 0.00022010708 0.00058709308 
   80000    2.4310209 0.0021937282    284904.75    137792.34 0.00021616444 0.00022257126 0.00057955806 
   81000    2.4285961 0.0021652137    284904.75    140824.93 0.00019034767 0.00021178726 0.00063104666 
   82000    2.4291833 0.0021690557    284904.75    143898.82 0.00025084909 0.00022462432 0.00061028087 
   83000    2.4282958 0.0021665176    284904.75    147012.04 0.00027567854 0.00026722675 0.00062527531 
   84000    2.4281636 0.0021672291    284904.75    150166.82 0.00027392978 0.00030146779 0.00061666779 
   85000    2.4272364 0.0021656535    284904.75     153369.9 0.00028094482 0.00028783932 0.00060828951 
   86000    2.4342687 0.0021644062    284904.75    156627.31 0.00025973287   0.00029317 0.00060508491 
   87000    2.4286731 0.0021620378    284904.75    159913.77 0.00025096644 0.00026089794 0.00060562998 
   88000    2.4288975 0.0021794951    284904.75    163155.55 0.00029939329 0.00025217744 0.00064032158 
   89000    2.4269096 0.0021650011    284904.75    166377.21 0.00029748186 0.00027296187 0.00062452475 
   90000    2.4284755 0.0021857704    284904.75    169589.22 0.0003460256 0.00026469695 0.00068351727 
   91000    2.4333525 0.0021688315    284904.75    172705.77 0.00022689917 0.00010112944 0.00048442011 
   92000    2.4319668 0.0021973192    284904.75    175818.79 9.4667306e-05 0.00014327733 0.00042779572 
   93000    2.4319183 0.0021622846    284904.75    178885.03 0.0002537389 -7.5643242e-05 0.0003229844 
   94000    2.4301111  0.002167501    284904.75    181908.11 0.00025390344 -5.3416068e-05 0.00033558334 
   95000    2.4306861 0.0021638568    284904.75    184967.36 0.00030553291 1.0641966e-05 0.0003517211 
   96000    2.4322213 0.0022003447    284904.75    188032.17 0.00020396708 -5.4552174e-05 0.00026500341 
   97000    2.4290624 0.0021742232    284904.75    191134.01 0.00020224393 8.5814674e-06 0.00031164133 
   98000    2.4300877 0.0021622449    284904.75    194212.12 0.00018920106 7.7389825e-05 0.00040210398 
   99000    2.4275918 0.0021824816    284904.75    197300.43 0.00020730852 6.9943755e-05 0.00045672253 
  100000    2.4266379 0.0021658228    284904.75    200350.88 0.00019169539 0.0001236836 0.00048010529 
  101000    2.4272691 0.0021816128    284904.75    203364.97 0.00020369628 0.00012647589 0.00039774753 
  102000    2.4267904 0.0021690537    284904.75    206413.92 0.00016845841 0.00012250796 0.00044270361 
  103000    2.4284461 0.0021637174    284904.75    209502.02 0.00016324601 0.00012292852 0.0004563539 
  104000    2.4247529 0.0021685736    284904.75    212628.42 0.00022861612 0.00023446984 0.00035123232 
  105000    2.4269944 0.0021691918    284904.75     215781.9 0.00020437909 0.00031023524 0.00038158889 
  106000    2.4273212 0.0021775553    284904.75    218950.16 0.00012694027 0.00032676165 0.00038071492 
  107000    2.4308936  0.002170482    284904.75    222147.11 0.00017481513 0.00034646134 0.00035086977 
  108000    2.4285769  0.002167678    284904.75    225364.36 0.00013590953 0.00035330058 0.0003974365 
  109000    2.4299362 0.0021734244    284904.75    228589.25 0.00020584743 0.00043708985 0.00038520576 
  110000     2.426845 0.0021822335    284904.75    231709.45 0.00033051228  0.000436317 0.00040556702 
  111000    2.4256928 0.0021670818    284904.75    234845.35 0.00021475803 0.00035518108 0.00040429113 
  112000    2.4284274 0.0021671644    284904.75    238038.96 0.00021503086 0.00033111032 0.00042804233 
  113000    2.4257362 0.0021666348    284904.75    241295.06 0.00025162995 0.00039435426 0.00041400569 
  114000    2.4247828 0.0021686573    284904.75    244579.56 0.00024066989 0.00036715633 0.00037469411 
  115000    2.4271596 0.0021641644    284904.75    247897.59 0.00015784685 0.0004030923 0.00038926582 
  116000      2.42222 0.0022992584    284904.75    251170.34 0.00036022086 0.00029756424 0.00044100338 
  117000    2.4263795  0.002165393    284904.75    254387.58 0.00012075636 0.00030103861 0.00025756052 
  118000    2.4259928 0.0022585699    284904.75    257564.38 2.1142662e-06 0.00011519974 -4.4883706e-06 
  119000    2.4330305 0.0021746813    284904.75    260743.75 0.00013902045 0.00033513132 0.00024584829 
  120000    2.4282661 0.0021623975    284904.75    263941.63 0.00023750359 0.00029796507 0.00023767837 
  121000    2.4265121 0.0021653435    284904.75    267144.25 0.00025933519 0.00027654988 0.00025200132 
  122000    2.4291809 0.0021702899    284904.75       270384 0.00025951271 0.00030280358 0.00022842689 
  123000     2.426015 0.0021667341    284904.75    273678.13 0.00025015883 0.00027806636 0.0002329119 
  124000    2.4274103 0.0021637297    284904.75    277016.76 0.00023952243 0.00026919114 0.0002094098 
  125000    2.4296497 0.0021641683    284904.75    280389.23 0.00020586369 0.0002353486 0.00025425688 
  126000    2.4245973 0.0021686857    284904.75     283805.5 0.00026329433 0.00022179049 0.00026964344 
  127000    2.4278742  0.002163272    284904.75    287265.24 0.0002111692 0.00027553317 0.00034772704 
  128000     2.431866 0.0021691969    284904.75    290717.74 0.00026375208 0.00029554927 0.00040258751 
  129000     2.427222 0.0021917895    284904.75    294174.82 0.00033558741 0.00035444537 0.00040672296 
  130000    2.4301201 0.0021738565    284904.75     297547.9 0.0003631697 0.00028948256 0.00040996748 
  131000    2.4296576  0.002167989    284904.75    300894.84 0.00032528689 0.00025104827 0.00045524037 
  132000    2.4259822 0.0021662147    284904.75    304201.49 0.00032965354 0.00023724774 0.00043053208 
  133000    2.4270947 0.0021669429    284904.75    307511.86 0.00020142181 0.00026029364 0.00039465339 
  134000    2.4254359 0.0021673145    284904.75    310851.88 0.00014437478 0.00028373165 0.00039394408 
  135000    2.4248135 0.0021684843    284904.75    314213.63 0.00015273027 0.00026904265 0.00037222497 
  136000    2.4267116  0.002165534    284904.75    317635.37 0.00023859435  0.000224359 0.0003746245 
  137000    2.4301131 0.0021712458    284904.75    321083.98 0.00021613427 0.00021996419 0.00036396414 
  138000    2.4284403 0.0021626131    284904.75    324497.36 0.00019541048 0.0002560002 0.00036245957 
  139000    2.4269857  0.002164251    284904.75    327899.52 0.00019868109 0.00028364731 0.00033935845 
  140000    2.4305551  0.002167281    284904.75    331343.77 0.00021208863 0.00025062593 0.00028108751 
  141000    2.4247163 0.0021684867    284904.75       334803 0.00021492804 0.00020611841 0.00024543123 
  142000    2.4297573 0.0021683929    284904.75    338226.37 0.00023085412 0.00030544423 0.00024112049 
  143000    2.4248702 0.0021683788    284904.75    341607.04 0.00023754988 0.00038181581 0.00026616737 
  144000     2.424636 0.0021685099    284904.75    344996.22 0.0002739269 0.00039363223 0.00025808301 
  145000    2.4338284 0.0021643138    284904.75    348383.59 0.0002698159 0.00046040913 0.00023496257 
  146000    2.4277739 0.0021640132    284904.75    351680.36 0.00034378356 0.00046525104 0.0002204491 
  147000    2.4225279 0.0022345007    284904.75    354960.46 0.00054569428 0.00031223195 -1.9417112e-05 
  148000    2.4277259 0.0021655927    284904.75    358264.88 0.00042003734 0.00045064843 0.00016891205 
  149000    2.4289069 0.0021742475    284904.75    361577.66 0.00032269026 0.00033066486 0.00023704321 
  150000    2.4272333 0.0021701186    284904.75    364905.59 0.00034412639 0.00033569723 0.00026781909 
  151000    2.4273805    0.0021649    284904.75    368266.11 0.0003458225 0.0003152422 0.00029558591 
  152000    2.4263544 0.0021671149    284904.75    371613.84 0.00037540337 0.00033928747 0.00033120812 
  153000    2.4271016 0.0021642686    284904.75    374994.36 0.00027457739 0.0004176007 0.00032054985 
  154000    2.4269599 0.0021754668    284904.75    378409.97 0.00022052813 0.00044469126 0.00038288268 
  155000    2.4266096  0.002165169    284904.75    381806.97 0.00028418218 0.0003057063 0.00012606277 
  156000    2.4281308 0.0021638883    284904.75    385149.42 0.00034018958 0.00028111386 0.00016200893 
  157000     2.425209 0.0021673205    284904.75    388532.11 0.00033034633 0.00027905872 0.00013550463 
  158000     2.428749 0.0021664086    284904.75    391958.04 0.00029082897 0.00028717779 0.00011648725 
  159000    2.4244096 0.0021691434    284904.75    395408.35 0.00047279668 0.00030307054 0.00018242398 
  160000    2.4246308  0.002168414    284904.75    398876.83 0.00046318302 0.00034547952 0.00022954354 
  161000    2.4256329 0.0021666304    284904.75    402366.08 0.00047204736 0.00028934341 0.00022728122 
  162000    2.4269213 0.0021652924    284904.75    405888.85 0.00050944369 0.00029551317 0.00023419544 
  163000    2.4298193 0.0021649126    284904.75    409452.63 0.00047880688 0.00032507815 0.00020882504 
  164000    2.4273041  0.002170312    284904.75    413033.86 0.00051339416 0.00041621201 0.0001636574 
  165000    2.4255327 0.0021665779    284904.75    416589.34 0.00051931665 0.0004752556 0.00023487885 
  166000    2.4258299 0.0021668678    284904.75    420114.43 0.00048691566 0.00046972163 0.00018378047 
  167000    2.4291656 0.0021736385    284904.75    423710.03 0.00058437707 0.00048997126 5.079064e-05 
  168000    2.4260523 0.0021677625    284904.75    427223.65 0.00038606891 0.00048442235 -3.7410338e-06 
  169000    2.4308896 0.0021674698    284904.75    430731.27 0.00036307993 0.00054573761 -1.8873068e-05 
  170000    2.4282072 0.0021729795    284904.75    434285.13 0.00037575988 0.00053833676 1.5384538e-05 
  171000    2.4254044 0.0021675744    284904.75    437890.74 0.00037202179 0.00054438489 2.0286218e-05 
  172000    2.4261421 0.0021660412    284904.75    441552.97 0.00038275475 0.00052620279 2.5067128e-05 
  173000    2.4288266 0.0021742566    284904.75    445307.63 0.00037658775 0.00048920014 5.8432752e-05 
  174000    2.4249338 0.0021678135    284904.75    449113.54 0.00045720231 0.00041488063 6.5594187e-05 
  175000     2.430539 0.0021631384    284904.75    452933.55 0.00024230957 0.00037929225 0.00013497449 
  176000    2.4307111 0.0021621337    284904.75    456575.12 0.00011814308 0.00041848049 0.00012832288 
  177000    2.4309917 0.0021640936    284904.75    460210.63 0.00017031451 0.00045939862 0.00014890433 
  178000    2.4251218 0.0021676248    284904.75    463895.72 0.00017965331 0.00048485175 9.4740491e-05 
  179000    2.4256877 0.0021671443    284904.75     467578.4 0.00019200757  0.000474077 9.2530273e-05 
  180000    2.4308873 0.0022218465    284904.75    471288.17 0.00029000208 0.00049497834 9.6351245e-05 
  181000    2.4269396 0.0021667025    284904.75    475014.52 0.00023951846 0.00049906467 7.5935038e-05 
  182000    2.4258869 0.0021666029    284904.75    478780.05 0.00028868171 0.0003966396 2.0047043e-05 
  183000    2.4271397 0.0021656319    284904.75    482535.88 0.00014117209 0.00033469993 0.00011872003 
  184000    2.4309221 0.0021599851    284904.75    486317.08 0.00022179292 0.00037142677 0.0001491476 
  185000    2.4265223 0.0021651935    284904.75    490130.15 0.00014645099 0.00032083308 0.00018968835 
  186000    2.4278872 0.0021779733    284904.75    493953.84 0.00015603405 0.00040104999 0.00018515796 
  187000    2.4274348 0.0021645325    284904.75    497777.87 0.0001792771 0.00036648256 0.00023828175 
  188000    2.4248841 0.0021681199    284904.75    501550.53 0.00015088514 0.00036581923 0.00022207405 
  189000    2.4272117 0.0021644268    284904.75    505361.55 0.00018313825 0.00036512942 0.00018861675 
  190000     2.424729 0.0021682549    284904.75    509219.35 0.00019433621 0.00036336137 0.00020004283 
  191000    2.4265112 0.0021674158    284904.75    513090.86 0.00018109996 0.00033651557 0.00020289169 
  192000    2.4263029 0.0021669168    284904.75    516917.04 0.00018631657 0.00032406621 0.00021544982 
  193000    2.4260789 0.0021662099    284904.75    520746.06 0.0001733447 0.00034857724 0.00021059257 
  194000     2.422775 0.0022079719    284904.75       524623 0.00022323908 0.00038075829 0.00026253919 
  195000    2.4268683 0.0021826727    284904.75    528540.94 0.00021126537 0.00036126482 0.00034151794 
  196000    2.4231065 0.0022062536    284904.75    532428.02 0.00021132218 0.00055546066 0.00035847323 
  197000    2.4283721 0.0021709637    284904.75    536278.09 0.00014512578 0.00053231093 0.00029067792 
  198000    2.4273082 0.0021634363    284904.75    540140.36 0.00011749308 0.00048482804 0.00026188837 
  199000    2.4323795 0.0021979209    284904.75    544017.01 0.00025961424 0.00036090676 0.00024586977 
  200000    2.4242779 0.0021695001    284904.75    547830.27 0.00021521572 0.00041894574 0.00025620892 
  201000    2.4284041 0.0021697784    284904.75    551633.83 0.00020892773 0.00041958335 0.00035098992 
  202000    2.4264847 0.0021652598    284904.75    555442.11 0.00018575526 0.00044703293 0.00032807585 
  203000    2.4292724 0.0021816844    284904.75    559211.96 0.00020232685 0.00041880245 0.00033310855 
  204000    2.4333323 0.0021729862    284904.75     562838.7 3.630043e-05 0.00046928915 0.00030292424 
  205000    2.4245912 0.0021683965    284904.75    566286.47 0.00010727352 0.00039879092 0.00022182457 
  206000    2.4247529 0.0021683699    284904.75    569771.38 7.6497645e-05 0.00035211239 0.00020388831 
  207000    2.4248267 0.0022173796    284904.75    573303.51 0.00012755684 0.00031226206 0.00016670708 
  208000    2.4246032 0.0021684886    284904.75    576863.43 0.00012747496 0.0003631471 0.00017485393 
  209000    2.4266361  0.002165708    284904.75    580457.21 5.0001625e-05 0.00038111985 7.0171492e-05 
  210000    2.4261778 0.0021660209    284904.75    584031.81 5.1323245e-05 0.00042042193 5.6119071e-05 
  211000    2.4294889 0.0021669707    284904.75    587642.91 0.00012801231 0.00041948497 -2.139904e-05 
  212000     2.424922 0.0021686259    284904.75    591217.56 0.00012132318 0.00044594217 -1.5485826e-05 
  213000    2.4270165 0.0021867626    284904.75     594780.4 0.00016168379 0.00051158854 -5.6953136e-05 
  214000    2.4244893 0.0021686951    284904.75     598246.4 6.7874614e-05 0.00040798739 6.4787889e-05 
  215000     2.426711 0.0021757383    284904.75     601747.8 0.00011535044 0.00036565839 4.6818987e-05 
  216000    2.4302699 0.0021661241    284904.75    605283.08 0.00018541755 0.00027699482 1.8242303e-05 
  217000    2.4254356 0.0021674066    284904.75    608891.85 0.00016973423 0.00028644465 -9.3038544e-06 
  218000    2.4248447  0.002168219    284904.75    612499.97 0.00018119171 0.00023245863 -5.0291284e-05 
  219000     2.426794 0.0021654678    284904.75    616091.67 0.00017447518 0.00024862339 -5.4812919e-05 
  220000    2.4254797 0.0021672498    284904.75    619735.48 0.00017446281 0.00026252318 -3.1218825e-05 
  221000    2.4280876 0.0021696154    284904.75    623453.11 0.00016667708  0.000308873 6.8115371e-05 
  222000    2.4248014 0.0021683069    284904.75     627187.2 0.00012117781 0.00027114593 4.458546e-05 
  223000    2.4195714 0.0022361811    284904.75    630973.81 2.659838e-06 0.00035595816 9.7779405e-05 
  224000    2.4290646 0.0021626043    284904.75    634774.52 6.8568464e-05 0.00032505614 3.4521248e-05 
  225000    2.4268791 0.0021695008    284904.75    638591.44 7.8407567e-05 0.00032075724 2.5056358e-05 
  226000    2.4276924 0.0021641312    284904.75    642403.21 0.00011309909 0.00033242554 5.4519013e-05 
  227000    2.4252577 0.0021672234    284904.75     646165.3 9.098268e-05 0.00028081768 2.7618097e-05 
  228000    2.4250669 0.0021674996    284904.75       649850 8.4633066e-05 0.00027400171 7.882682e-05 
  229000    2.4257382 0.0021669196    284904.75     653576.7 6.8240279e-05 0.00030174327 0.00019862554 
  230000    2.4244986 0.0021685493    284904.75    657284.56 7.3640291e-06 0.00028428743 0.00022129323 
  231000    2.4288735 0.0021616465    284904.75    660985.23 -6.2566396e-05 0.00029720115 0.00019399217 
  232000    2.4258728  0.002166219    284904.75    664654.75 -8.2697054e-05 0.00033804707 0.0001830855 
  233000     2.426368 0.0021665826    284904.75    668347.22 -5.374023e-05 0.00035684513 0.00018080496 
  234000    2.4255721 0.0022100665    284904.75     672114.1 0.00013312955 0.00023873552 0.00022028697 
  235000    2.4275921 0.0021644885    284904.75    675906.45 -4.1736894e-05 0.00036198675 0.00015652776 
  236000    2.4307804 0.0021666154    284904.75    679744.34 -0.00011712757 0.00020796743 0.00024197848 
  237000    2.4270866 0.0021683687    284904.75    683629.24 -0.0001412706 0.00020052862 0.00019263291 
  238000    2.4270581 0.0021642298    284904.75    687536.98 1.5772945e-05 0.00011857632 0.00012422966 
  239000     2.424767 0.0021682005    284904.75    691443.45 3.0773484e-05 0.00015126788 0.0001124978 
  240000    2.4203769 0.0022260891    284904.75    695382.88 -0.00013564521 0.00024096961 0.00024195427 
  241000    2.4278751 0.0021664285    284904.75    699271.56 -0.00010885998 7.5399411e-05 0.00010913399 
  242000    2.4273383  0.002164154    284904.75    703174.61 -5.8867339e-05 8.388903e-05 0.00017281332 
  243000    2.4255186  0.002167374    284904.75    707016.59 -0.0001514646 9.1008189e-05 0.00025131213 
  244000    2.4276143 0.0021644407    284904.75    710854.28 -0.00014500216 5.8539619e-05 0.00025569109 
  245000    2.4284376 0.0021656974    284904.75    714736.53 -0.00014569699 -3.2886819e-05 0.00023501396 
  246000     2.425733 0.0021664275    284904.75    718752.62 -0.00015067237 -0.00010616778 0.00026083422 
  247000    2.4264487 0.0021653972    284904.75    722843.15 -0.00013485257 -0.00012497037 0.00029758957 
  248000    2.4254694 0.0021675987    284904.75    726825.71 -0.00012589339 -7.8753983e-05 0.00032526319 
  249000    2.4295787 0.0021637973    284904.75    730802.27 -0.00016729833 -0.00012616177 0.00031495557 
  250000    2.4213377 0.0022186137    284904.75    734804.75 -0.00015797472 -0.00013665238 0.00024996545 
  251000    2.4253528 0.0021667827    284904.75    738729.09 -0.00019019358 -0.00019080264 0.00032850129 
  252000    2.4250763 0.0021682938    284904.75    742621.83 -0.00015894196 -0.00031208689 0.0002742004 
  253000    2.4259882 0.0021667278    284904.75    746546.97 -0.00020030966 -0.00037449429 0.00024605906 
  254000    2.4282352 0.0021636407    284904.75    750334.02 -0.00021496862 -0.00041402651 0.00029096053 
  255000    2.4281709 0.0021765633    284904.75    754117.22 -0.00021210446 -0.00041063205 0.00029213849 
  256000    2.4316356 0.0021614652    284904.75    757904.65 -0.00012973963 -0.00039800121 0.00029569333 
  257000    2.4273639 0.0021673531    284904.75    761656.07 -0.00016627365 -0.00044781482 0.00031219012 
  258000    2.4157432 0.0022562047    284904.75    765405.89 -0.00036027976 -0.00042132326 0.00035404224 
  259000    2.4272053 0.0021647619    284904.75    769092.79 8.3200746e-05 -0.00030021399 0.00028744599 
  260000    2.4269621  0.002165562    284904.75    772706.09 9.5561568e-05 -0.0003046172 0.00032842661 
  261000    2.4291467 0.0021701958    284904.75    776283.52 4.5754594e-05 -0.00032040517 0.00035438349 
  262000    2.4247256 0.0021685003    284904.75    779744.85 0.00015539105 -0.00051577706 0.00052110482 
  263000    2.4266441 0.0021670313    284904.75     783066.2 0.00015006952 -0.00049145631 0.00051615393 
  264000    2.4253178 0.0021671088    284904.75    786453.14 0.00015290029 -0.00051913351 0.00052800632 
  265000     2.431408 0.0021647001    284904.75    789899.63 0.0001284551 -0.00047863424 0.00056773164 
  266000    2.4245525  0.002168444    284904.75    793413.44 0.00017085046 -0.00049700445 0.00057394811 
  267000    2.4250482 0.0021676363    284904.75    796870.17 0.00022883726 -0.00048120794 0.00059958894 
  268000    2.4300406  0.002162173    284904.75    800259.29 0.00025580074 -0.00058605536 0.00061062878 
  269000    2.4261089 0.0021670892    284904.75     803624.3 0.0002603619 -0.00059077495 0.00058915761 
  270000    2.4293629 0.0021637325    284904.75    806985.74 0.00014704153 -0.00041872622 0.00045432161 
  271000    2.4281314 0.0021657315    284904.75    810173.85 0.00017073642 -0.00046345627 0.0004242464 
  272000    2.4283688 0.0021678056    284904.75    813343.26 0.00014480499 -0.00046353236 0.0004288918 
  273000    2.4244815 0.0021971494    284904.75    816670.92 0.00013182713 -0.00044410207 0.00050959047 
  274000    2.4253322 0.0021672168    284904.75    820020.15 0.00022076096 -0.00051550843 0.00030801578 
  275000    2.4247742 0.0021683047    284904.75    823388.86 0.00023256754 -0.00051359639 0.00030358712 
  276000    2.4255606   0.00218718    284904.75     826821.5 0.00024413258 -0.00042841154 0.00018230891 
  277000    2.4265991 0.0021773982    284904.75    830256.95 0.00020605484 -0.00039370929 0.00018199375 
  278000    2.4245205 0.0021687311    284904.75    833629.13 0.00017790501 -0.00043504841 0.00021189999 
  279000    2.4248337 0.0021682081    284904.75    837056.44 0.00018894804 -0.00044660892 0.00020143893 
  280000    2.4273046 0.0021651128    284904.75    840540.38 0.00020884042 -0.00045558225 0.00022488131 
  281000    2.4264269 0.0021826844    284904.75    844116.11 0.00024825267 -0.00043538883 0.00016263416 
  282000    2.4301907 0.0021634635    284904.75    847701.81 0.00014293903 -0.00041886498 0.00015509977 
  283000     2.426537  0.002182034    284904.75    851303.67 0.0002482264 -0.00037981919 0.00025671924 
  284000    2.4273558 0.0021676442    284904.75    854895.36 0.00022983862 -0.00050129866 0.00028234085 
  285000    2.4286345 0.0021623561    284904.75     858510.8 0.00022083933 -0.00045698103 0.00026144955 
  286000    2.4245746 0.0021685394    284904.75    862182.53 0.00019921101 -0.00047304379 0.00016173515 
  287000    2.4266194 0.0021653116    284904.75    865926.51 0.00019224554 -0.0004635997 0.00013801574 
  288000    2.4277335 0.0021645791    284904.75    869676.59 0.00019587059 -0.00050128343 0.00015218406 
  289000    2.4249152 0.0021685197    284904.75    873498.78 0.00017959239 -0.00056019657 0.00018181771 
  290000    2.4273502 0.0021637332    284904.75    877419.79 0.00029363033 -0.00068076527 -0.0001072527 
  291000    2.4294593 0.0021775616    284904.75    881275.81 0.00036390938 -0.00054823077 -3.2920637e-05 
  292000    2.4295009 0.0021818883    284904.75    885193.69 0.00028906149 -0.00049304173 -9.4941371e-05 
  293000     2.422321  0.002242411    284904.75    889146.92 0.00038970497 -0.00062374844 -9.1794554e-05 
  294000    2.4260889 0.0021661255    284904.75    893083.63 0.0003536458 -0.00053411998 -0.00011942259 
  295000     2.429193 0.0021756799    284904.75     897041.1 0.00036519834 -0.00054355381 -0.00010650457 
  296000    2.4273081 0.0021740982    284904.75    901039.66 0.00035365231 -0.00043290812 -7.9777718e-05 
  297000    2.4271938 0.0021646485    284904.75    905034.16  0.000327954 -0.00032745385 0.00026729429 
  298000    2.4249478 0.0021679199    284904.75    909029.68 0.00042550805 -0.00016596006 0.00028223663 
  299000    2.4251826 0.0022065046    284904.75    913115.24 0.00043551178 -0.00013231841 0.00020280266 
  300000    2.4252309 0.0021677514    284904.75    917124.76 0.00050621828 -0.00013304169 0.00027885038 
  301000    2.4273577 0.0021744967    284904.75    921126.26 0.00058543119 -8.5859026e-05 0.00025193696 
  302000     2.426248 0.0021658137    284904.75    925200.45 0.00058315073 -7.5266632e-05 0.00029931529 
  303000    2.4278357  0.002166158    284904.75    929308.47 0.00059790298 -6.2004728e-05 0.00037871293 
  304000    2.4263261 0.0021663436    284904.75    933406.36 0.0006276947 -8.0966651e-05 0.00032417535 
  305000    2.4265919 0.0021664297    284904.75    937470.52 0.00063242514 -0.00015338209 0.00032401549 
  306000    2.4258899 0.0021666469    284904.75    941558.56 0.00061906494 -0.00015336068 0.0003550839 
  307000    2.4244056 0.0021691676    284904.75    945596.09 0.00062753675 -0.00015291664 0.00036519933 
  308000    2.4257157   0.00222546    284904.75    949648.95 0.00043584295 -0.0003074232 0.00036938676 
  309000    2.4253383 0.0021672919    284904.75    953651.85 0.00058827347 -0.00018623097 0.00033847707 
  310000     2.427342 0.0021662518    284904.75    957573.19 0.00054143978 -0.00021403148 0.00035238168 
  311000    2.4294406   0.00217192    284904.75    961471.34 0.00053067685 -0.00016295395 0.00034448851 
  312000    2.4258735 0.0021661599    284904.75    965408.14 0.00052445541 -0.00017448735 0.00034771103 
  313000    2.4282697 0.0021702134    284904.75    969393.91 0.00066131047 -0.00020536223 0.00032502324 
  314000    2.4312666 0.0021704207    284904.75    973408.41 0.00063171709 -8.4017374e-05 0.00033024507 
  315000    2.4290779 0.0021729278    284904.75    977372.51 0.00049973146 -9.8300269e-05 0.00024918218 
  316000    2.4274033  0.002168809    284904.75    981306.99 0.00048900868 -0.00010294376 0.0002361401 
  317000    2.4271813 0.0021652045    284904.75    985319.38 0.00046872002 -9.774502e-05 0.00025362732 
  318000     2.427509 0.0021653545    284904.75    989394.35 0.00041419806 -0.00010039506 0.00022363176 
  319000    2.4287973 0.0021662338    284904.75    993528.31 0.00040020832 -0.00011735296 0.00020375654 
  320000    2.4302269 0.0021757813    284904.75     997725.9 0.00034938954 -0.00026202884 0.00018717195 
  321000    2.4270113 0.0021700026    284904.75    1001972.3 0.00035110414 -0.00024207515 0.00020229889 
  322000    2.4266478 0.0021644942    284904.75    1006272.6 0.00037112715 -0.00018474474  0.000255166 
  323000     2.428893 0.0021631377    284904.75    1010538.9 0.00035809636 -0.00012439819 0.00028177468 
  324000    2.4304918  0.002163693    284904.75    1014892.7 0.00040740754 -0.00012134822 0.00027411635 
  325000    2.4268847 0.0021663496    284904.75    1019217.4 0.00038636644 -0.00017715166 0.0002971712 
  326000    2.4307473 0.0021649252    284904.75    1023514.7 0.00040056889 -0.00016239903 0.0003563246 
  327000    2.4319215 0.0021641793    284904.75    1027640.2 0.00031764892 -0.00030592729 0.00032994455 
  328000    2.4281547 0.0021648783    284904.75    1031789.8 0.00035449573 -0.00025431583 0.00036271667 
  329000    2.4282678 0.0021711432    284904.75      1035990 0.00031673774 -0.00023358125 0.00035359065 
  330000    2.4285773 0.0021794131    284904.75    1040195.9 0.00032409765 -0.00025365719 0.00030354379 
  331000     2.424478 0.0021690435    284904.75    1044423.3 0.00035512701 -0.00020523201 0.00035813007 
  332000    2.4244452 0.0021687574    284904.75    1048697.7 0.00034844639 -0.00022010343 0.00035677376 
  333000    2.4268511 0.0022318414    284904.75    1053019.4 0.00017208511 -1.1121334e-06 7.8369422e-05 
  334000    2.4248901 0.0021680007    284904.75    1057290.9 0.00038390236 -0.00022490572 0.0003078595 
  335000    2.4269782 0.0021653183    284904.75    1061540.9 0.00039638067 -0.00022251421 0.00034223735 
  336000    2.4268935  0.002173772    284904.75      1065842 0.00035168488 -0.00019771394 0.00031882638 
  337000    2.4247881 0.0021681633    284904.75    1070193.7 0.00040536853 -0.00018314137 0.00038276045 
  338000    2.4246318 0.0021684498    284904.75    1074551.2 0.00041954411 -0.00019707146 0.00039168761 
  339000    2.4269382 0.0021660997    284904.75    1078981.2 0.00040560083 -0.00014219593 0.00043479431 
  340000    2.4245674 0.0021688878    284904.75    1083469.1 0.00046351133 -0.00015312171 0.00040948662 
  341000    2.4258059 0.0021666094    284904.75      1088039 0.00040059426 -0.00010096965 0.0003643265 
  342000    2.4295233 0.0021610399    284904.75    1092640.4 0.00037677777 -7.727796e-05 0.00041385107 
  343000    2.4306711  0.002166313    284904.75    1097202.8 0.00035859359 -9.4093003e-05 0.00045521085 
  344000    2.4292771  0.002162047    284904.75    1101704.1 0.00039070934 -0.00011732341 0.0003587382 
  345000    2.4287398 0.0021634297    284904.75    1106221.3 0.0003978157 -0.00011403458 0.0003374938 
  346000    2.4283315 0.0021641761    284904.75      1110830 0.0004325777 -0.00018690213 0.00031799197 
  347000     2.427469 0.0021647275    284904.75    1115581.6 0.00039649501 -0.00021500662 0.00023247776 
  348000    2.4254571  0.002167085    284904.75    1120279.9 0.00044890899 -0.00025021792 0.00025412196 
  349000    2.4283111 0.0021656883    284904.75    1125015.7 0.00044005383 -0.0002256072  0.000251357 
  350000    2.4313754 0.0021898034    284904.75    1129646.6 0.00049002087 -0.00027522413 0.0003985664 
  351000    2.4256032 0.0021672176    284904.75    1134152.9 0.00045504905 -0.00026589144 0.00050600541 
  352000    2.4278103 0.0021633387    284904.75    1138636.8 0.00043753913 -0.00027740031 0.00054017414 
  353000    2.4294577 0.0021812797    284904.75    1143126.6 0.00043563747 -0.00033012329 0.00049297332 
  354000    2.4296108  0.002177593    284904.75    1147547.9 0.00047283664 -0.00032213636 0.00048361045 
  355000    2.4287617 0.0021792406    284904.75    1151977.2 0.00047753222 -0.0002678384 0.00050416984 
  356000    2.4338407 0.0021811142    284904.75    1156263.2 0.00056376801 -0.00031088446 0.00057873763 
  357000    2.4247399 0.0021687116    284904.75    1160425.6 0.00060013053 -0.00031850183 0.00068121767 
  358000    2.4265791 0.0021888563    284904.75    1164526.4 0.00054738783 -0.00030034888 0.00075738944 
  359000    2.4272852 0.0021650905    284904.75      1168549 0.00050194572 -0.00029367475 0.00086611371 
  360000    2.4246781 0.0021684605    284904.75    1172661.2 0.00050755757 -0.00028608174 0.00089944664 
  361000    2.4253472 0.0021671898    284904.75    1176838.2 0.00049576991 -0.00030518242 0.00092764077 
  362000    2.4278108 0.0021691033    284904.75    1181112.6 0.00054398143 -0.00028340533 0.00095272336 
  363000    2.4243778 0.0021690755    284904.75    1185442.5 0.00057027325 -0.00023450678 0.00092840948 
  364000    2.4257945 0.0021668795    284904.75    1189739.6 0.00041591274 -0.000206288 0.00094347458 
  365000    2.4294846 0.0021687181    284904.75    1194067.7 0.0004242405 -0.00018717422 0.00093826029 
  366000    2.4269293 0.0021656453    284904.75    1198360.5 0.00039751014 -0.00024090399 0.00091940268 
  367000    2.4267721 0.0021662854    284904.75    1202647.2 0.00039819962 -0.00023788663 0.00088892136 
  368000    2.4272766 0.0021693568    284904.75    1207032.4 0.00039950536 -0.00021346795 0.00090544735 
  369000     2.424862 0.0021681768    284904.75    1211400.6 0.00040127835 -0.00018857283 0.00091907678 
  370000     2.424852 0.0021682823    284904.75      1215679 0.00037275837 -0.00025920196 0.0010132034 
  371000    2.4247161 0.0021687295    284904.75    1219837.5 0.00032783456 -0.00027769799 0.0010385879 
  372000    2.4308302 0.0021658244    284904.75    1224034.3 0.00036147638 -0.00020769941 0.00096105892 
  373000    2.4271367 0.0021953334    284904.75    1228285.9 0.00037516184 -0.00034567583 0.00093077665 
  374000    2.4270316  0.002164443    284904.75    1232514.4 0.00029881337 -0.00026058921 0.00099019596 
  375000    2.4256513 0.0021973636    284904.75    1236744.8 0.00028151997 -0.00031164133 0.00097844781 
  376000    2.4273656 0.0021648967    284904.75    1241057.9 0.00031044236 -0.00045555553 0.0010409085 
  377000    2.4285845 0.0021658726    284904.75    1245453.3 0.00026040265 -0.00036343294 0.0010225676 
  378000    2.4276566 0.0021853897    284904.75    1249834.9 0.00030349344 -0.00046047641 0.00094792583 
  379000    2.4260427 0.0021662929    284904.75    1254194.3 0.00027315412 -0.00042262732 0.0010268145 
  380000    2.4280395 0.0021649091    284904.75    1258578.3 0.00026972334 -0.00040692605 0.00096473408 
  381000    2.4286869 0.0021750362    284904.75    1262928.9 0.00030294734 -0.00040334245 0.0008736401 
  382000    2.4317494 0.0021689141    284904.75    1267300.4  0.000293646 -0.00042830002 0.00085188043 
  383000    2.4263228  0.002165569    284904.75    1271627.7 0.00026191972 -0.0003409734 0.00084517487 
  384000     2.427152  0.002167217    284904.75    1275999.4 0.00022577413 -0.00036364002 0.00082162031 
  385000    2.4273953 0.0021636166    284904.75    1280346.1 0.00018848719 -0.00024046209 0.00080035854 
  386000    2.4267978 0.0021661712    284904.75    1284642.1 0.00011560729 -0.00029659191 0.00089566746 
  387000    2.4245132 0.0021689581    284904.75    1288967.6 0.00011192674 -0.00029257698 0.00089422813 
  388000    2.4280228 0.0022050091    284904.75    1293332.5 0.00013419673 -0.00029392274 0.0009238708 
  389000    2.4256281 0.0021877115    284904.75    1297680.3 0.00010170193 -0.00032175291 0.00079364598 
  390000    2.4244289 0.0021689768    284904.75    1302061.4 0.00015234101 -0.00034990987 0.00080481931 
  391000    2.4299774 0.0021663196    284904.75    1306480.6 0.00016046722 -0.00039924116 0.00079332866 
  392000    2.4271334 0.0022077971    284904.75    1310939.4 0.00010380835 -0.00032595711 0.00074626162 
  393000    2.4275427 0.0021658921    284904.75    1315385.2 0.00011052908 -0.00034856106 0.00072316578 
  394000    2.4270972  0.002172989    284904.75    1319811.4 0.00012212869 -0.00036466851 0.00069898057 
  395000    2.4283716 0.0021679763    284904.75    1324328.1 8.0869805e-05 -0.00037949757 0.0007382889 
  396000    2.4260575 0.0021657512    284904.75    1328888.5 8.2644776e-05 -0.00035088189 0.00074840882 
  397000    2.4243927 0.0021691579    284904.75    1333461.1 8.7059035e-05 -0.00032568825 0.00076645001 
  398000    2.4247468 0.0021682165    284904.75    1338050.2 6.9275163e-05 -0.00030992656 0.00065801548 
  399000    2.4262269 0.0021662546    284904.75    1342639.4 3.6114346e-05 -0.00028253621 0.0006813442 
  400000    2.4245314  0.002168921    284904.75    1347301.8 4.3925412e-05 -0.00029303027 0.00065420309 
  401000    2.4250055 0.0021676657    284904.75    1352025.8 5.2126372e-05 -0.00031489998 0.00062058732 
  402000    2.4300371  0.002163269    284904.75    1356782.1 2.2582776e-05 -0.00032530395 0.00071581039 
  403000    2.4252271 0.0021962709    284904.75    1361546.8 2.1459231e-05 -0.00036245233 0.00074426638 
  404000    2.4208063  0.002245112    284904.75    1366274.2 0.00032663909 -0.0006735423 0.00069555741 
  405000    2.4301575 0.0021735848    284904.75    1371063.7 -1.2930922e-05 -0.00030233254 0.00064927839 
  406000    2.4246125 0.0021684355    284904.75    1375902.6 -8.3386018e-06 -0.00029913299 0.00065421776 
  407000    2.4275104 0.0021662121    284904.75    1380753.1 -5.2354823e-05 -0.00031290588 0.00067005983 
  408000    2.4288644 0.0021750726    284904.75    1385655.5 -9.3524717e-05 -0.00033405641 0.00074331229 
  409000    2.4290657 0.0021952572    284904.75    1390633.2 -1.0716861e-05 -0.00030872908 0.00066639855 
  410000     2.428131 0.0021645819    284904.75    1395615.1 -8.6628907e-05 -0.00032793898 0.00059906762 
  411000     2.426526 0.0021655187    284904.75    1400416.6 -5.176272e-05 -0.00025762753 0.00065720522 
  412000    2.4246026 0.0021689227    284904.75    1405192.1 -5.6145991e-05 -0.00027333362 0.0006607681 
  413000    2.4256678 0.0021664389    284904.75    1410035.4 -3.9669704e-05 -0.00021761129 0.00069872763 
  414000    2.4259479  0.002185526    284904.75    1414956.4 -0.00011514973 -0.00019576265 0.00074275203 
  415000    2.4253773 0.0021676425    284904.75    1420007.1 -0.00012408457 -0.00018873447 0.00068311251 
  416000    2.4238896 0.0022099191    284904.75    1425185.1 -7.5229637e-05 -0.00015705786 0.00080026086 
  417000    2.4268275 0.0021666019    284904.75    1430415.1 -9.1548553e-05 -0.00014906077 0.0007704848 
  418000    2.4248445 0.0021681596    284904.75    1435643.3 -0.00013897095 -0.00013651274 0.00079876069 
  419000    2.4288519 0.0021669844    284904.75    1440906.6 -0.00014773467 -0.00011567866 0.00080200196 
  420000    2.4253417 0.0021665212    284904.75    1446207.3 -0.0001399877 -0.00017142251 0.00076341716 
  421000    2.4252837 0.0021674477    284904.75    1451399.7 -0.00015328625 -0.00016870005 0.00076395941 
  422000    2.4273453 0.0021664808    284904.75    1456577.6 -0.00021910993 -0.00017708012 0.0007541911 
  423000     2.426874 0.0021649823    284904.75    1461663.9 -0.0002049874 -0.00018199908 0.00075811278 
  424000     2.424549  0.002168532    284904.75    1466794.6 -0.00019714264 -0.00019094909 0.00075170812 
  425000    2.4250608 0.0021676202    284904.75    1471961.7 -0.00018133302 -0.00019454831 0.00075040861 
  426000    2.4277411 0.0021630108    284904.75    1477177.7 -0.00019656283 -0.00018733139 0.00075566151 
  427000    2.4270789 0.0021657138    284904.75    1482350.6 -0.00021996666 -0.00025512994 0.00074318161 
  428000    2.4274524 0.0021646612    284904.75    1487517.2 -0.00027758868 -0.00024207159 0.00062941371 
  429000    2.4264546 0.0021659223    284904.75    1492540.3 -0.00028408821 -0.00016941205 0.00056859378 
  430000    2.4300073 0.0021620418    284904.75    1497489.5 -0.00026253699 -0.00011600543 0.00057365304 
  431000    2.4261258 0.0021656495    284904.75    1502354.2 -0.00027196534 -0.00023926903 0.00046276235 
  432000    2.4269217 0.0021754089    284904.75    1507167.9 -0.00027288658 -0.00026489319 0.00053868691 
  433000     2.428326 0.0021638125    284904.75    1512096.6 -0.000288566 -0.00026330345 0.00058254071 
  434000    2.4284268 0.0021641024    284904.75    1517019.8 -0.00031314721 -0.00034386001 0.00056021592 
  435000     2.429853 0.0021938765    284904.75    1521927.9 -0.00041011161 -0.00037556281 0.00053670546 
  436000     2.426013 0.0021659121    284904.75    1526834.1 -0.00035579614 -0.00031927653 0.00053159381 
  437000    2.4284934 0.0021696112    284904.75    1531715.4 -0.00033361382 -0.00030900041 0.00054999881 
  438000    2.4279562  0.002175736    284904.75    1536650.6 -0.00035686236 -0.00029225599 0.00060645778 
  439000    2.4251576 0.0021675314    284904.75    1541617.3 -0.00034339779 -0.0002878528 0.00057904608 
  440000    2.4285573 0.0021642738    284904.75    1546596.6 -0.0003500433 -0.00030832388 0.00052441839 
  441000    2.4310369 0.0021583971    284904.75    1551588.7 -0.00039536959 -0.00033835052 0.00052937372 
  442000    2.4264997 0.0021657594    284904.75      1556626 -0.00041002575 -0.00039872715 0.00057806756 
  443000    2.4314206 0.0021973964    284904.75    1561727.7 -0.0002338445 -0.00032020953 0.00050396337 
  444000     2.424701 0.0021686289    284904.75    1566781.9 -0.00023015205 -0.00028367876 0.00049221942 
  445000    2.4275659 0.0021643581    284904.75      1571813 -0.00016561516 -0.00022408367 0.00053692082 
  446000    2.4274072 0.0021642855    284904.75    1576852.3 -0.00019168766 -0.00020082241 0.00055611314 
  447000    2.4275182 0.0021714239    284904.75      1581879 -0.00015547609 -0.0002314117 0.00051940597 
  448000    2.4294597 0.0021628551    284904.75    1586898.5 -0.00017504133 -0.00021570879 0.00053110573 
  449000     2.427896 0.0021702182    284904.75    1591919.7 -0.00019109314 -0.00021754561 0.00050176554 
  450000    2.4265465 0.0021682361    284904.75    1596814.5 -0.00018597856 -0.00020751315 0.00054839965 
  451000    2.4254508 0.0021671251    284904.75    1601648.8 -0.00019229561 -0.00020148956 0.00052300785 
  452000    2.4239231 0.0022393959    284904.75    1606548.9 -0.00010874903 -0.0001152424 0.00053037394 
  453000     2.425831  0.002166816    284904.75    1611475.6 -0.00011471979 -3.8423765e-05 0.0005990404 
  454000    2.4264478 0.0021659337    284904.75    1616371.7 -0.0001257004 -2.4360068e-05 0.00061222223 
  455000    2.4288402 0.0021620609    284904.75    1621275.7 -0.00018935932 -7.0750134e-06 0.00059863605 
  456000    2.4270611 0.0021655194    284904.75    1626181.6 -0.00015875322 -4.0178399e-05 0.00060578765 
  457000    2.4289542 0.0021867784    284904.75    1631167.2 -0.00012754377 -6.9925895e-05 0.00056303271 
  458000     2.426712 0.0021669574    284904.75    1636173.6 -0.00022635835 -6.4320328e-05 0.00055196211 
  459000    2.4267962 0.0021674552    284904.75      1641193 -0.0002116673 -0.00011297017 0.00054462235 
  460000    2.4275912 0.0021643779    284904.75    1646159.6 -0.00017333128 -5.0136229e-05 0.0005471155 
  461000    2.4291098 0.0021621719    284904.75    1651080.5 -9.351048e-05 -3.3206657e-05 0.0005078195 
  462000    2.4278372 0.0021644923    284904.75    1656008.4 -8.3596058e-05 -6.0694807e-05 0.00046421517 
  463000    2.4250949 0.0021679626    284904.75    1660929.8 -0.00013021476 -0.00012977646 0.00049363874 
  464000    2.4289628 0.0021727803    284904.75    1665814.9 -0.00012615696 -9.4054569e-05 0.00049866072 
  465000    2.4285773 0.0021640359    284904.75    1670558.8 -6.2473716e-05 -0.00017741485 0.00063851368 
  466000    2.4246015 0.0021963492    284904.75    1675214.2 -8.7872941e-05 -0.00020858251 0.00058431609 
  467000    2.4245721 0.0021686124    284904.75    1679797.3 -4.0855615e-05 -0.0001062341 0.00052347797 
  468000    2.4263802 0.0021658946    284904.75    1684425.6 -5.7655082e-05 -0.00010473959 0.00053993531 
  469000    2.4286287 0.0021654075    284904.75    1689073.8 -9.0125338e-05 -0.00011405382 0.0005977716 
  470000    2.4250628 0.0021676928    284904.75    1693653.7 -7.3341382e-05 -0.00013971577 0.00071132393 
  471000    2.4288501 0.0021618468    284904.75    1698253.4 -8.234955e-05 -0.00013653297 0.00070507926 
  472000     2.427921 0.0021630711    284904.75    1702842.7 -5.397983e-05 -0.00013072041 0.00072250705 
  473000      2.43155 0.0022225709    284904.75    1707448.5 -0.00015247231 -0.00012857513 0.00069480291 
  474000    2.4249956 0.0021677314    284904.75    1711923.3 -1.4470835e-05 -2.8591014e-05 0.00072368911 
  475000    2.4262729 0.0021659239    284904.75    1716421.8 -4.6529775e-06 -3.8142985e-05 0.0007070113 
  476000    2.4218019 0.0022199717    284904.75    1720923.6 0.00012792167 -0.00018651036 0.00075246292 
  477000    2.4273939 0.0021683112    284904.75    1725497.5 2.4234753e-05 -5.0152134e-05 0.00071199379 
  478000    2.4265004 0.0021658376    284904.75    1730158.1 -1.3687103e-07 -2.3324772e-06 0.00075403897 
  479000    2.4254199 0.0021670902    284904.75    1734888.3 3.6856042e-05 5.4933794e-06 0.00076013817 
  480000     2.424514 0.0021688483    284904.75    1739685.2 7.4396729e-05 4.5276769e-05 0.00070022158 
  481000    2.4271811 0.0021655782    284904.75      1744500 0.00012424201 8.503118e-05 0.00070188841 
  482000    2.4275754 0.0021667918    284904.75    1749308.8 0.00012413137 8.271568e-05 0.0006965271 
  483000    2.4277088 0.0021943495    284904.75      1754130 -3.8829101e-06 0.0001064267 0.00078484851 
  484000    2.4305833 0.0021666227    284904.75    1758856.5 9.3220732e-05 0.00015101347 0.00076095369 
  485000    2.4299762  0.002173532    284904.75    1763577.3 0.0001020125 0.00015542125 0.00070403228 
  486000    2.4295291 0.0021734151    284904.75    1768336.8  0.000134495 0.0001633863 0.00070321802 
  487000    2.4334359 0.0021625095    284904.75    1772993.4 0.00015939865 0.00014536762 0.00064047583 
  488000    2.4303897 0.0021633562    284904.75    1777448.6 0.00019231575 0.00014742041 0.00071219894 
  489000    2.4283991 0.0021629371    284904.75    1781826.4 0.00016781822 0.00017596914 0.00069229089 
  490000    2.4272907  0.002164736    284904.75    1786199.1 0.00016876152 0.00017726925 0.00069126755 
  491000    2.4318854  0.002175759    284904.75    1790636.3 0.0001604083 0.00015216438 0.00055920679 
  492000    2.4287856  0.002184534    284904.75    1794822.7 6.9506744e-05 0.00030486947 0.00056574267 
  493000    2.4255713 0.0021669341    284904.75    1798852.9 2.3438116e-05 0.00035071936 0.00061679441 
  494000     2.429001 0.0021901661    284904.75    1802929.4 3.7671647e-06 0.00030825314 0.0006518385 
  495000    2.4291463  0.002162393    284904.75    1807085.1 -9.7568011e-06 0.00036561184 0.00055517923 
  496000    2.4248347 0.0021680776    284904.75    1811109.4 -1.3285826e-05 0.00032197209 0.00053728628 
  497000      2.42466 0.0021684936    284904.75    1815142.7 -3.4564542e-05 0.00028913966 0.00052814516 
  498000    2.4277843  0.002167548    284904.75    1819194.8 -4.4892811e-05 0.0002213752 0.00048634187 
  499000    2.4258367 0.0021666653    284904.75      1823167 -2.7261778e-05 0.00026010836 0.00046812498 
  500000    2.4290184 0.0021672227    284904.75    1827183.8 -3.396351e-06 0.0002301578 0.00046687035 
  501000    2.4288936 0.0021638388    284904.75    1831171.5 -1.1790379e-05 0.00022927313 0.00046623107 
  502000    2.4277515 0.0021643558    284904.75    1835178.9 1.0705022e-05 0.00024745324 0.00048809437 
  503000    2.4271038  0.002164346    284904.75    1839333.5 5.3348102e-05 0.00032937342 0.00042877187 
  504000    2.4261709 0.0021652424    284904.75    1843589.5 2.0660421e-05 0.00032664639  0.000424563 
  505000    2.4249101 0.0021675967    284904.75    1847879.7 -3.4726863e-05 0.00034350745 0.00049040341 
  506000    2.4263713 0.0021654416    284904.75    1852187.6 2.1256047e-05 0.0003852611 0.00043828623 
  507000    2.4294797 0.0021739989    284904.75    1856447.6 -9.0853408e-05 0.00049678647 0.00030960358 
  508000    2.4278036 0.0021658954    284904.75    1860646.9 -8.2202346e-05 0.00041212015 0.00029270458 
  509000    2.4270335 0.0021688781    284904.75    1864871.2 -0.00012523261 0.00038576977 0.0002775461 
  510000    2.4291427 0.0021875539    284904.75      1869139 -0.00010080757 0.00047204334 0.00023199933 
  511000    2.4251938 0.0021676437    284904.75    1873342.6 -6.3977537e-05 0.00053360412 0.00024877999 
  512000    2.4264609 0.0021664749    284904.75    1877553.1 -0.00010265396 0.00055051802 0.0002286045 
  513000    2.4257503 0.0021661907    284904.75    1881679.2 -6.3055209e-05 0.00051031743 0.00019318591 
  514000    2.4300227 0.0021642374    284904.75    1885823.5 -9.850541e-05 0.00052676688 0.00020921585 
  515000    2.4289004 0.0021947133    284904.75    1889834.6 -3.3360648e-05 0.00055105323 0.00017287249 
  516000    2.4289596 0.0021643685    284904.75    1893915.8 -4.5891473e-05 0.00054993968 0.00016760351 
  517000    2.4258067 0.0021664137    284904.75    1897778.6 7.8146813e-05 0.0004842109 0.00024352825 
  518000    2.4264986 0.0021654758    284904.75    1901636.5 4.5589029e-05 0.00048916971 0.00026110908 
  519000    2.4288645 0.0021641622    284904.75    1905465.4 9.6198472e-05 0.00044398008 0.00028069919 
  520000    2.4290937 0.0021629212    284904.75    1909292.2 4.1106111e-05 0.00051178216 0.0002785145 
  521000    2.4257298 0.0021672951    284904.75    1913218.9 5.8345232e-05 0.00055462541 0.00030627633 
  522000    2.4270396 0.0021663976    284904.75    1917089.1 6.7375149e-05 0.00052549768 0.00032501034 
  523000    2.4252778 0.0021680523    284904.75    1920914.3 6.8283424e-05 0.0005065071 0.00041896878 
  524000    2.4279314 0.0021636585    284904.75    1924764.1 7.1947815e-05 0.00053559296 0.00047984799 
  525000    2.4262988 0.0021662398    284904.75    1928429.3 -5.7677893e-06 0.00055299578 0.00039813856 
  526000    2.4273773 0.0021777179    284904.75    1931960.8 -1.2160159e-05 0.00055275497 0.00037250064 
  527000    2.4255452  0.002166606    284904.75    1935523.4 -2.037748e-06 0.00054637445 0.00040513118 
  528000    2.4289418 0.0021655432    284904.75      1939050 2.6079706e-05 0.00051870015 0.00039655162 
  529000    2.4267218 0.0021833739    284904.75    1942638.1 6.6143155e-05 0.00057415266 0.00041154012 
  530000    2.4307817  0.002175381    284904.75    1946234.7 2.6436089e-05  0.000583368 0.00039163757 
  531000    2.4294313 0.0021687787    284904.75      1949778 8.6767288e-05 0.00059715831 0.00038215012 
  532000    2.4262994 0.0021658325    284904.75    1953337.8 0.00013616921 0.00056526062 0.00036848656 
  533000     2.426734 0.0021653027    284904.75    1956919.2 5.2044289e-05 0.00052265939 0.00031411453 
  534000    2.4304561 0.0021730406    284904.75    1960438.1 6.1126414e-05  0.000502342 0.00030712535 
  535000    2.4278127 0.0021632588    284904.75      1963984 9.2576792e-06 0.00052482938 0.00028323823 
  536000    2.4313119  0.002171354    284904.75    1967420.4 -1.422134e-06 0.00056862191 0.00033973948 
  537000    2.4325775 0.0021756458    284904.75    1970855.1 -2.7293766e-05 0.00051501481 0.00057405755 
  538000    2.4253935 0.0021672942    284904.75      1974322 6.9539122e-05 0.00056439748 0.00058946462 
  539000    2.4308689  0.002164163    284904.75    1977899.5 3.4730181e-05 0.00059014891 0.00061022994 
  540000    2.4259607 0.0021662861    284904.75    1981440.5 -2.6027186e-05 0.0004558525 0.00056759558 
  541000    2.4246057 0.0021685802    284904.75    1984909.3 4.0461672e-05  0.000304992 0.00046506803 
  542000    2.4273367 0.0021697758    284904.75    1988417.8 0.0002245907 0.00018685894 0.00044418628 
  543000    2.4246832 0.0021682194    284904.75    1991879.8 0.00022047077 0.00018068181 0.00042710987 
  544000    2.4267612 0.0021643927    284904.75    1995345.1 0.00020174916 0.00018665687 0.00041279496 
  545000    2.4274758 0.0021657233    284904.75    1998886.3 0.0001581119 0.00015184774 0.00044729178 
  546000    2.4317742 0.0021698746    284904.75    2002500.2 0.00025152581 0.00016286956 0.00053093191 
  547000    2.4257527 0.0021664372    284904.75    2006184.7 0.00028135971 0.00020985039 0.00055497955 
  548000     2.425598 0.0022153167    284904.75    2009828.8 0.00030494396 0.00018701825 0.00054964814 
  549000    2.4265539 0.0021663739    284904.75    2013425.6 0.00029149601 7.4816327e-05  0.000557887 
  550000    2.4262966 0.0021925762    284904.75    2016920.9 0.00034978601 0.00033795949 0.00057245969 
  551000    2.4295317 0.0021623856    284904.75    2020305.9 0.00030955903 0.00023220294 0.00055457993 
  552000    2.4283519 0.0021619801    284904.75    2023678.6 0.00026652176 0.00022724295 0.00053584849 
  553000    2.4292501 0.0021722954    284904.75      2027098 0.00027313031 0.00020062062 0.00050766205 
  554000    2.4284669  0.002170616    284904.75    2030525.3 0.0002081515 0.00018358856 0.00047880321 
  555000    2.4315609 0.0021664343    284904.75      2033999 0.0001899987 0.00017687993 0.00050014596 
  556000    2.4263648 0.0022030129    284904.75    2037446.2 0.0001732755 0.00018249813 0.00038020841 
  557000    2.4246114 0.0021686684    284904.75    2040641.4 0.00012679062 0.0001468271 0.00050758283 
  558000    2.4287479 0.0021783539    284904.75    2043935.2 0.00014537082 6.2668361e-05 0.00046801621 
  559000    2.4249217 0.0021679404    284904.75    2047278.3 0.00016142971 7.6945242e-05 0.00048928894 
  560000    2.4260481 0.0021659751    284904.75      2050597 0.00013583475 7.5240803e-05 0.00046615966 
  561000    2.4253011 0.0021674227    284904.75    2053985.9 0.00012342206 8.693962e-05 0.00044348307 
  562000      2.42778 0.0021685412    284904.75    2057532.2 0.00010658944 0.00014241748 0.00043230629 
  563000    2.4284592  0.002165767    284904.75    2061165.3 0.00011268087 0.00019176864 0.00039266741 
  564000    2.4263739 0.0021671332    284904.75    2064860.4 0.00011951061 0.00014794828 0.00042185997 
  565000    2.4297942 0.0021785778    284904.75    2068416.3 0.00028037872 0.00016875221 0.00051020208 
  566000    2.4252853 0.0021674127    284904.75    2071939.2 0.00031895345 4.8566051e-05 0.00046093634 
  567000    2.4305615 0.0021688464    284904.75    2075557.1 0.00031892867 4.9959024e-05 0.00045550981 
  568000    2.4314954 0.0021831879    284904.75    2079250.6 0.00027300303 4.2912196e-05 0.00043682497 
  569000    2.4294614 0.0021627123    284904.75    2082847.9 0.00027145782 8.0359495e-05 0.00037341185 
  570000    2.4281605 0.0021713128    284904.75    2086323.1 0.00022072846 8.9375895e-05 0.00039448959 
  571000     2.426875 0.0021647677    284904.75      2089780 0.00019307595 9.7977707e-05 0.00039536995 
  572000    2.4138473   0.00226522    284904.75    2093189.6 0.00066501441 0.00025711899 0.00017626651 
  573000    2.4281495 0.0021749861    284904.75      2096389 0.00019812468 8.4671221e-05 0.00040631651 
  574000    2.4263872 0.0021901271    284904.75    2099636.5 0.00022962189 0.00011998239 0.00036100661 
  575000    2.4254913 0.0021670439    284904.75    2102920.3 0.00035471669 0.00012266754 0.00042449021 
  576000    2.4277782 0.0021635163    284904.75    2106179.5 0.00037952522 0.00014077802 0.00039975993 
  577000    2.4275167 0.0021645866    284904.75    2109476.9 0.00035068801 0.00016696372 0.0003900574 
  578000    2.4305623 0.0021617567    284904.75    2112889.4 0.00037705537 0.00018205938 0.00041996793 
  579000    2.4283957 0.0021847504    284904.75      2116352 0.00031439612 0.00010984182 0.00045723361 
  580000    2.4257845 0.0021669198    284904.75    2119988.8 0.00033674072 0.00018322662 0.00041887838 
  581000    2.4261366 0.0021665086    284904.75      2123682 0.00037178456 0.00015476987 0.00041400537 
  582000    2.4287931 0.0021654277    284904.75    2127164.8 0.00035969306 0.00015656714 0.00041228527 
  583000    2.4306836 0.0021613483    284904.75      2130680 0.00038440983 0.00016730816 0.00033904487 
  584000    2.4279792 0.0021659218    284904.75    2134333.8 0.00048397862 0.0002943789 0.00038122995 
  585000    2.4283992 0.0021707722    284904.75    2138179.2 0.00048513841 0.00024305956 0.00033606281 
  586000    2.4276037 0.0021764269    284904.75    2142134.4 0.00049398909 0.00027811169 0.00025684021 
  587000    2.4278484 0.0021654432    284904.75      2145916 0.00063288031 0.00020141017 0.00035795447 
  588000    2.4256227 0.0021664161    284904.75    2149655.4 0.00063914924 0.0002075827 0.0003421517 
  589000    2.4254887  0.002167169    284904.75    2153375.4 0.00059232675 0.00018910263 0.00035608577 
  590000    2.4307876 0.0021619582    284904.75    2157082.3 0.00062292244 0.00017738507 0.00035946826 
  591000    2.4273917 0.0021645626    284904.75    2160950.7 0.00067376775 0.00024951246 0.00036183225 
  592000    2.4270536 0.0021773202    284904.75    2164784.9 0.00065850717 0.00019733657 0.00040537107 
  593000    2.4275162 0.0021649082    284904.75    2168628.2 0.00064312017 0.0002599256 0.00035482685 
  594000    2.4244404 0.0021689806    284904.75    2172572.6 0.00064940117 0.00028569361 0.00038584961 
  595000    2.4272716 0.0021799941    284904.75    2176593.3 0.00060878673 0.00027273284 0.00032543735 
  596000    2.4339111 0.0021713523    284904.75    2180673.2 0.00047715932 0.00026882963 0.00043987616 
  597000    2.4290979 0.0022062092    284904.75    2184924.6  0.000461352 0.00027176088 0.00042001124 
  598000    2.4269574 0.0021677932    284904.75    2189083.7 0.00046552958 0.00027397452 0.00045347215 
  599000    2.4247988  0.002168389    284904.75    2193215.9 0.00047457682 0.00023811342 0.00044517067 
  600000    2.4307785 0.0021666814    284904.75    2197415.5 0.00045007893 0.00020968024 0.00048467867 
  601000    2.4250539 0.0021677433    284904.75      2201539  0.000540955 0.00018573463 0.00052694647 
  602000    2.4276427  0.002166011    284904.75    2205647.1 0.00052491482 0.0001973426 0.00052380443 
  603000    2.4295745 0.0021682424    284904.75    2209753.7 0.00052136273 0.00015454985 0.00053104676 
  604000    2.4269791  0.002188921    284904.75    2213900.4 0.0004322188 0.00028068012 0.00041836685 
  605000    2.4282238 0.0021762594    284904.75    2217876.7 0.00041811286 0.00022026382 0.0003773374 
  606000    2.4256588 0.0021888565    284904.75    2221924.8 0.0004740106 0.00019327402 0.00038761297 
  607000    2.4275305 0.0021648313    284904.75    2226005.8 0.00042352345 0.00021166611 0.00041211927 
  608000      2.42468  0.002168815    284904.75    2230030.6 0.00038671391 0.00028852783 0.00055926291 
  609000    2.4249025 0.0021682544    284904.75    2234124.2 0.00038472432 0.00027733122 0.00055905783 
  610000    2.4153207 0.0022628967    284904.75    2238231.9 0.00016297595 0.00035762119 0.00049681367 
  611000    2.4248564 0.0021680502    284904.75    2242403.1 0.00035913257 0.00033367445 0.00047533968 
  612000    2.4277067 0.0021633456    284904.75    2246637.8 0.00033431113 0.00034676859 0.00043112336 
  613000    2.4180452 0.0022438299    284904.75    2250874.8 0.00014576531  0.000211302 0.00035203852 
  614000    2.4276213 0.0021641492    284904.75    2254999.6 0.00024360347 0.00041662605 0.00035724276 
  615000    2.4246742 0.0021684528    284904.75    2259164.7 0.00020924824 0.00045277927 0.00037214229 
  616000    2.4277924 0.0021821235    284904.75    2263372.3 0.00017332659 0.00051623294 0.00032163395 
  617000    2.4268366  0.002177903    284904.75    2267645.6 0.0002073898 0.00046457656 0.00037482001 
  618000    2.4263838 0.0021652532    284904.75    2271925.9 0.00017964424 0.00051686127 0.00032721313 
  619000    2.4244966  0.002168982    284904.75    2276227.2 0.00015840301  0.000571399 0.00035223444 
  620000    2.4269261 0.0021803117    284904.75    2280565.5 0.0001882854 0.00054331568 0.0002923944 
  621000    2.4301084 0.0021638092    284904.75    2284982.1 0.00021223829 0.00046650904 0.00037586112 
  622000    2.4246426 0.0021683945    284904.75    2289440.3 0.00024100065 0.00043087982 0.00032862824 
  623000     2.425376 0.0021675995    284904.75    2293975.4 0.00025627806 0.00038280491  0.000311389 
  624000    2.4262842 0.0021658574    284904.75    2298614.7 0.00024706452 0.00039452388 0.00031245246 
  625000    2.4304566  0.002159735    284904.75    2303241.5 0.00027134709 0.00037665778 0.00030189822 
  626000    2.4300243 0.0021808259    284904.75    2307863.8 0.00028756292 0.00040070518 0.00035154264 
  627000    2.4287655 0.0021707315    284904.75    2312530.9 0.00028544143 0.00037174867 0.00036776166 
  628000    2.4249919 0.0021675635    284904.75    2317293.5 0.00028166417 0.00038143113 0.00033402218 
  629000    2.4261178 0.0021659852    284904.75      2322071 0.00026975413 0.00038384218 0.00032831951 
  630000    2.4302429 0.0021648217    284904.75    2326796.3 0.00031811228 0.00050100908 0.00037131893 
  631000    2.4279806 0.0021754459    284904.75    2331451.3 0.00035602201 0.00047664431 0.00037153794 
  632000    2.4259646 0.0021662301    284904.75    2335911.3 0.00035009104 0.00044462175 0.00035919169 
  633000    2.4246836 0.0021686749    284904.75      2340386 0.00038685436 0.00045816691 0.00036243089 
  634000    2.4257051 0.0021669441    284904.75    2344857.1 0.00040324679 0.00044921187 0.0003547619 
  635000    2.4266114 0.0022151776    284904.75    2349345.6 0.00066135289 0.00076332871 0.00056107841 
  636000    2.4270161 0.0021663059    284904.75    2353935.1 0.00044898311 0.00044867815 0.00033275946 
  637000    2.4297103  0.002176589    284904.75    2358557.5 0.00045262732 0.00040467086 0.00035820183 
  638000    2.4318639 0.0021618016    284904.75    2363130.9 0.00047507717 0.00038361675 0.00040237834 
  639000    2.4262707 0.0021664904    284904.75    2367812.4 0.00044872405 0.00053099532 0.0004549403 
  640000    2.4263411 0.0021655283    284904.75    2372534.1 0.00041416356 0.00057906198  0.000483627 
  641000    2.4245445 0.0021690137    284904.75    2377141.9  0.000478149 0.00059515417 0.00040231968 
  642000     2.427998 0.0021647577    284904.75      2381608 0.00048247211 0.00061903788 0.00040535281 
  643000    2.4243133 0.0021692818    284904.75    2386007.3 0.00036204123 0.00055688332 0.00035143351 
  644000    2.4286103  0.002162519    284904.75    2390354.2 0.00023024914 0.00052443371 0.00036038278 
  645000    2.4248767 0.0021679717    284904.75    2394761.4 0.00022430609 0.00054111452 0.00036310068 
  646000    2.4289524  0.002164845    284904.75    2399270.3 0.00017426857 0.00057414068 0.00039354721 
  647000    2.4278976 0.0021642081    284904.75    2403848.9 0.0001814859 0.00054650659 0.00042638742 
  648000     2.425151 0.0021675222    284904.75    2408286.7 5.3866367e-05 0.00047085379 0.00032311079 
  649000    2.4238519 0.0022053673    284904.75    2412799.5 5.9664015e-05 0.00048751964 0.00036320799 
  650000    2.4259406 0.0021661421    284904.75    2417173.7 6.605941e-05 0.0005188314 0.00035726797 
  651000    2.4250949 0.0021674079    284904.75    2421558.1 8.7408091e-05 0.00051608624 0.00035371188 
  652000    2.4283327 0.0021767691    284904.75    2426084.9 0.00012551106 0.00049583381 0.00043241182 
  653000    2.4263387 0.0021654282    284904.75    2430629.1 0.00010359118 0.00042556965 0.00029901389 
  654000    2.4246502 0.0021683641    284904.75    2435205.8 6.7315496e-05 0.00039073079 0.00020721785 
  655000     2.428842 0.0021641776    284904.75    2439789.3 2.9103939e-05 0.00035958462 0.00023064323 
  656000    2.4253118 0.0021671708    284904.75    2444370.6 1.4282474e-05 0.00038988099 0.00026571751 
  657000    2.4265388 0.0021661155    284904.75    2448951.7 6.3201668e-05 0.00038276217 0.00021898267 
  658000    2.4340055 0.0021584245    284904.75    2453542.9 7.6521868e-05 0.00027082543 0.00020501078 
  659000     2.431613  0.002184928    284904.75    2458170.1 9.031784e-05 0.00040974546 0.00021425721 
  660000    2.4265273 0.0021671255    284904.75      2462744 -4.8521496e-06 0.00031464223 0.00030055793 
  661000    2.4158635 0.0023208422    284904.75    2467311.3 2.9506983e-05 0.00038858615 0.00021287197 
  662000    2.4259923 0.0021659915    284904.75    2471447.7 4.5495433e-05 0.00036550827 0.00019049147 
  663000    2.4283433 0.0021645303    284904.75    2475696.4 1.0242331e-05 0.00034890172 0.00023237469 
  664000    2.4256468 0.0021672233    284904.75      2480013 -1.6320174e-07 0.00031278892 0.00024615117 
  665000    2.4248595 0.0021678812    284904.75      2484357 -1.949165e-05 0.00035500412 0.0002461297 
  666000    2.4247929 0.0021678739    284904.75    2488763.8 -2.5109303e-05 0.00035832162 0.00026596898 
  667000    2.4259611 0.0021662036    284904.75    2493236.8 -7.4452398e-06 0.00032153368 0.00021738045 
  668000    2.4286645 0.0021641119    284904.75    2497762.3 2.3019832e-05 0.00038576443 0.00022854176 
  669000    2.4254605 0.0021677167    284904.75    2502347.4 -2.8147018e-05 0.0003591989 0.00023470663 
  670000    2.4251398 0.0021670633    284904.75      2507004 -6.4149672e-05 0.00030214448 0.00018945631 
  671000    2.4258017 0.0021663707    284904.75    2511714.1 -7.3883939e-05 0.00033300918 0.0002041634 
  672000    2.4260567 0.0021662347    284904.75    2516342.8 -8.7941623e-05 0.00029520788 0.00020125698 
  673000    2.4298198 0.0021654412    284904.75    2521028.1 -0.00012685142 0.00029392287 0.00023647575 
  674000    2.4314845 0.0021655835    284904.75    2525913.6 -0.00016954735 0.00029189338 0.00016157618 
  675000    2.4279114 0.0021693099    284904.75    2530990.8 -0.00020197054 0.00028277309 0.00014331282 
  676000    2.4251797   0.00216786    284904.75    2535995.8 -0.00015072082 0.0002894663 0.00021795767 
  677000     2.425604 0.0021669999    284904.75    2540922.5 -0.0001604276 0.00032987679 0.00014829755 
  678000    2.4283057 0.0021651749    284904.75      2545713 -1.0557214e-05 0.00052091229 0.00018426741 
  679000    2.4299146 0.0021759418    284904.75    2550556.1 -8.2115846e-05 0.00055917175 0.00022116473 
  680000    2.4275649 0.0021637543    284904.75      2555336 -4.7471058e-05 0.00051907304 0.00017519607 
  681000    2.4285037 0.0021705618    284904.75    2560199.6 3.631997e-05 0.00044912681 0.00018301612 
  682000    2.4271149 0.0021647278    284904.75    2565046.2 4.2893098e-05 0.00046341636 0.00014038926 
  683000    2.4253027 0.0021674562    284904.75    2569959.3 4.5157027e-05 0.00044378619 0.0001460692 
  684000    2.4266248 0.0021656702    284904.75    2574885.8 2.5290888e-05 0.00041412911 0.00016790299 
  685000    2.4268326 0.0021670797    284904.75    2579669.7 2.2089988e-05 0.00046873119 0.00015452398 
  686000     2.424662 0.0021685811    284904.75      2584546 -5.1464294e-05 0.00044680671 0.00023812989 
  687000    2.4298751 0.0021691196    284904.75    2589530.2 -4.3363409e-05 0.00042868228 0.0002622532 
  688000     2.424105 0.0022332851    284904.75    2594597.2 1.4484981e-05 0.00034782947 0.00024142458 
  689000     2.427037 0.0021685316    284904.75    2599524.2 -1.8170313e-05 0.00030172627 0.00021307738 
  690000    2.4277191 0.0021687253    284904.75    2604470.5 -1.8853214e-05 0.0003307046 0.00018720852 
  691000     2.427689 0.0021673015    284904.75    2609450.3 -1.1827087e-05 0.00033125336 0.00017590885 
  692000    2.4300678 0.0021644164    284904.75    2614488.3 -2.455781e-05 0.00032560167 0.0001200474 
  693000     2.425214 0.0021926138    284904.75    2619517.9 3.279909e-05 0.00037970963 0.00010280509 
  694000    2.4260794 0.0021660402    284904.75    2624548.2 1.324635e-05 0.00038020796 0.00010622293 
  695000    2.4271663  0.002184289    284904.75    2629599.4 4.3268687e-05 0.00036724845 0.00011546621 
  696000    2.4263783 0.0021650023    284904.75      2634620 3.817005e-05 0.00035324751 0.00010627954 
  697000    2.4300262 0.0021655354    284904.75    2639641.7 0.00010068357 0.00043170761 8.6031431e-05 
  698000    2.4246378  0.002168727    284904.75      2644542 0.00019106254 0.0003244142 0.00012679508 
  699000     2.424531 0.0021687804    284904.75    2649414.2 0.00020328166 0.00032023598 0.00011040459 
  700000    2.4271326 0.0021649562    284904.75    2654329.5 0.00023419489 0.00032715563 0.00011445287 
  701000     2.425493 0.0021669688    284904.75    2659227.8 0.00023862538 0.00027286674 8.2268894e-05 
  702000    2.4242255  0.002169769    284904.75      2663760 0.00022693396 0.00028163959 8.1048286e-05 
  703000    2.4262495  0.002165855    284904.75    2668264.3 0.00023834951 0.0003070347 9.647798e-05 
  704000    2.4263107 0.0021824233    284904.75    2672824.1 0.00024764415 0.0003453144 8.785847e-05 
  705000    2.4268926 0.0021644881    284904.75    2677325.8 0.00032185915 0.00025118733 0.00011447055 
  706000    2.4285681 0.0021639075    284904.75    2681844.8 0.00034355035 0.00026836822 0.00017436079 
  707000    2.4266098 0.0021656164    284904.75    2686382.4 0.00030573526 0.00020708562 0.00021728571 
  708000    2.4239407 0.0022045594    284904.75    2690859.6 0.00044437343 0.00022516059 0.00022442316 
  709000    2.4259459 0.0021660614    284904.75    2695286.9 0.00040379672 0.00018452685 0.00023197392 
  710000    2.4285398 0.0021699045    284904.75    2699775.9 0.00035571174  0.000233701 0.00016712229 
  711000    2.4246646 0.0021684246    284904.75    2704227.2 0.00035482324 0.00026382898 0.00014868953 
  712000    2.4244747 0.0021689885    284904.75    2708721.7 0.00033594923 0.00028629712 9.0361915e-05 
  713000    2.4311574 0.0021617112    284904.75    2713220.1 0.00042944616 0.00029820148 4.6414876e-05 
  714000    2.4255658 0.0021666692    284904.75    2717602.4 0.00045990991 0.00030724498  6.74751e-05 
  715000    2.4255276 0.0021673658    284904.75    2722010.1 0.00048870058 0.00029805999 6.544554e-05 
  716000    2.4253901  0.002166513    284904.75    2726505.2 0.00047005124 0.00031790132 6.468326e-05 
  717000    2.4263878 0.0021658841    284904.75    2731161.8 0.00050602561 0.00025988916 8.0446769e-05 
  718000    2.4283913 0.0021894059    284904.75    2735831.2 0.00051521304 0.00024845702 0.00010789589 
  719000    2.4256657 0.0021663233    284904.75    2740491.3 0.00039419148  0.000347437 5.5286715e-05 
  720000    2.4285163 0.0021703756    284904.75    2745150.7 0.00038047643 0.00032893243 8.0925446e-05 
  721000    2.4283967 0.0021687199    284904.75    2749812.7 0.00038527656 0.00034350087 9.0308603e-05 
  722000    2.4301227 0.0021843516    284904.75    2754487.4 0.00033771565 0.00039284752 9.265722e-05 
  723000    2.4254993 0.0021664457    284904.75    2759223.3 0.00034486608 0.00044186186 8.0946727e-05 
  724000    2.4262493 0.0021812276    284904.75    2764003.4 0.00038698815 0.00040692447 6.8504829e-05 
  725000    2.4249906 0.0021678144    284904.75    2768823.7 0.00029740058 0.00043295703 9.8375413e-05 
  726000    2.4273654 0.0021656023    284904.75    2773640.6 0.00028817733 0.00042764249 0.00014199244 
  727000    2.4245151 0.0021689044    284904.75    2778604.8 0.00021221921 0.00042216764 8.5761463e-05 
  728000    2.4247403 0.0021684123    284904.75    2783634.8 0.00023914196 0.00036894312 3.6600005e-05 
  729000    2.4250843 0.0021678757    284904.75    2788746.9 0.00024533471 0.0003757611 5.0528131e-05 
  730000    2.4243105 0.0021691427    284904.75    2793929.4 0.00023800276 0.00037910798 3.4719136e-05 
  731000     2.428069 0.0021654777    284904.75    2799135.7 0.00025469516 0.00043600258 1.1660505e-06 
  732000     2.424565 0.0021682504    284904.75    2804265.9 0.00029536504 0.00041996568 -1.8238842e-05 
  733000    2.4272787 0.0021651334    284904.75    2809128.9 0.00021028315 0.00038822101 6.1026424e-06 
  734000    2.4263493 0.0021653136    284904.75    2813920.4 0.00010297774 0.00035810744 5.2598219e-05 
  735000    2.4254336 0.0022062585    284904.75    2818752.3 0.00017683626 0.00044133769 0.00010195864 
  736000    2.4270567 0.0021951172    284904.75    2823568.2 0.00020963256 0.00040841106 0.00016887661 
  737000    2.4244003 0.0022083016    284904.75    2828109.2 0.00012779595 0.00041628372 0.00020316262 
  738000    2.4269195 0.0021710557    284904.75      2832742 8.8715308e-05 0.00038329512 5.4321916e-05 
  739000     2.430288 0.0021635051    284904.75      2837375 0.00015520691 0.00029191628 5.3807385e-05 
  740000    2.4282959 0.0021657441    284904.75    2841961.1 0.00012891599 0.00024205927 7.3431818e-05 
  741000    2.4280274 0.0021689469    284904.75    2846529.8 9.7578845e-05 0.00026312666 8.8365103e-05 
  742000    2.4277776 0.0021639157    284904.75    2851128.9 0.00015280045 0.00028953967 3.6408044e-05 
  743000    2.4294928 0.0021658908    284904.75      2855787 0.00010467354 0.00018078115 3.5484426e-05 
  744000    2.4244572 0.0021690187    284904.75    2860431.1 0.00011079399 0.0001818505 4.9162355e-05 
  745000    2.4247129 0.0021683444    284904.75    2865130.3 0.00010367663 0.00017812752 3.4374045e-05 
  746000    2.4280881 0.0021819577    284904.75    2869918.5  0.000152987 0.00016488754 4.4552802e-05 
  747000    2.4267196 0.0021807065    284904.75    2874607.3 0.00017170465 0.00017168298 6.1242178e-05 
  748000    2.4264689 0.0022082176    284904.75      2879143 0.00037053037 0.00022352308 0.00016859788 
  749000     2.426738 0.0021661004    284904.75    2883335.7 0.00019480314 0.0001113855 0.00010209684 
  750000    2.4273978 0.0021649991    284904.75    2887615.7 0.00018551496 0.00016613831 0.00013163619 
  751000    2.4250573 0.0021996162    284904.75    2891891.6 0.00025338428 0.00012999179 7.9922716e-05 
  752000    2.4257085 0.0021667535    284904.75      2896135 0.00011693435 0.00014024253 0.00021961827 
  753000    2.4247768 0.0021680398    284904.75    2900349.6 0.0001421461 0.00016668647 0.0002324552 
[...]
  849000    2.4262467 0.0021654938    284904.75    3298565.6 -5.0749272e-05 3.7092849e-05 -0.00015967444 
  850000    2.4254727 0.0021668628    284904.75    3302728.2 -7.4365019e-05 0.00016213285 -0.00010509745 
  851000    2.4257537 0.0021663281    284904.75    3306738.9 -8.1180265e-05 6.5331388e-05 -9.0486965e-05 
  852000    2.4277161 0.0021711224    284904.75    3310573.3 -0.00012769147 5.1255438e-05 -8.5220268e-05 
  853000    2.4269015 0.0021656601    284904.75    3314293.4 -0.00012067182 5.2032185e-05 -7.5384383e-05 
  854000    2.4284625 0.0021734188    284904.75    3318022.1 -0.0001427774 4.9113702e-05 -5.4254578e-05 
  855000    2.4293915 0.0021647557    284904.75      3321802 -0.00014479183 1.9731624e-05 -0.00010912726 
  856000    2.4269315 0.0021653616    284904.75    3325549.9 -0.00016133383 -0.00011111682 -8.6912045e-05 
  857000    2.4266836   0.00216446    284904.75      3329182 -4.6982587e-05 1.2450133e-05 -0.00016217787 
  858000    2.4263177 0.0021668935    284904.75    3332783.8 -4.9489734e-05 4.7283086e-06 -0.00016429081 
  859000    2.4260717  0.002165481    284904.75    3336359.4 -3.7242502e-05 -8.7167172e-06 -0.00012488827 
  860000     2.429224 0.0021635278    284904.75    3339887.2 -4.3677294e-05 -5.7905672e-05 -0.00013000861 
  861000    2.4250765 0.0021675827    284904.75    3343454.8 -1.2380475e-05   1.0377e-05 -5.7974432e-05 
  862000    2.4275211 0.0021655433    284904.75    3346865.9 6.140936e-05 -0.00020843554 5.6706276e-05 
  863000    2.4184688 0.0022376728    284904.75    3350168.7 0.00069333532 -0.00050561644 0.00023965003 
  864000    2.4251624 0.0021673492    284904.75      3353502 9.1914076e-05 -2.6147791e-05 -5.1547613e-05 
  865000    2.4226869 0.0022358114    284904.75    3356772.2 8.9042976e-05 -4.4540054e-05 -0.00011939048 
  866000    2.4191086 0.0022538764    284904.75    3359951.2 -2.8659202e-05 0.00025471372 -0.00018275808 
  867000    2.4286261 0.0021670817    284904.75    3363269.9 0.00012907241 2.6548182e-05 -2.9357759e-05 
  868000    2.4276621 0.0021671993    284904.75    3366669.9 0.0001258105 1.5959116e-05 -2.4668727e-05 
  869000    2.4273172 0.0021740354    284904.75    3370096.3 0.00015268405 -9.5664131e-05 1.7497869e-05 
  870000     2.426975 0.0021672698    284904.75    3373408.8 0.00015290751 -0.00019134069 0.00018116887 
  871000    2.4251488 0.0021676363    284904.75    3376458.5 0.00014699535 -0.00022075112 0.00014916338 
  872000    2.4264111 0.0021676602    284904.75    3379579.2 0.0001212509 -0.00019608037 0.00015524701 
  873000    2.4240752 0.0022016537    284904.75    3382711.3 -7.939417e-06 -0.0002393302 0.00016616036 
  874000    2.4250011 0.0021677068    284904.75    3385954.9 0.00012694946 -0.00021805691 0.00012189898 
  875000    2.4274717 0.0021683898    284904.75    3389270.3 0.00018926691 -0.00019215806 7.5887994e-05 
  876000    2.4278072 0.0021654055    284904.75    3392628.3 0.00016266372 -0.00018492598 7.238347e-05 
  877000    2.4270115  0.002172824    284904.75    3396053.6 0.00017143283 -0.00014773664 9.3440731e-05 
  878000    2.4272775 0.0022105378    284904.75    3399467.8 0.00016817783 -0.00021332255 -3.9598662e-05 
  879000    2.4248383 0.0021677717    284904.75    3402994.3 -0.00012470677 -0.00011921748 -6.8311298e-05 
  880000    2.4272303 0.0021891753    284904.75    3406650.8 -0.00020581818 -0.00011291894 -2.556346e-05 
  881000     2.431226 0.0021622212    284904.75    3410441.5 -0.00023130555 -4.8027926e-05 -1.3954097e-05 
  882000    2.4253133 0.0021672148    284904.75    3414173.8 -0.00022217951 -4.121547e-05 -3.2832374e-05 
  883000    2.4275344 0.0021638745    284904.75    3417906.3 -0.00020074745 1.1490563e-05 -9.0100987e-06 
  884000    2.4293161 0.0021874736    284904.75    3421598.5 -0.00019281973 -1.7105544e-05 -1.2720409e-05 
  885000    2.4285387  0.002179228    284904.75      3425177 -0.00023379321 3.0064839e-05 -0.00010169241 
  886000    2.4300968 0.0021662923    284904.75      3428777 -0.00020020165 3.3032063e-05 -0.00010931336 
  887000    2.4322569  0.002170774    284904.75    3432379.1 -0.00036061061 -1.2907384e-05 -9.9678197e-05 
  888000    2.4270737 0.0021644774    284904.75    3436008.5 -0.00029140402 1.5798372e-05 -8.9040937e-05 
  889000    2.4258588 0.0021667532    284904.75    3439454.5 -0.00025060691 6.901134e-05 -9.5125291e-05 
  890000     2.426752 0.0021647232    284904.75    3442762.8 -0.00032103411 3.9951282e-06 -6.4669124e-05 
  891000    2.4250275 0.0021678647    284904.75    3446225.4 -0.00029149627 0.00012329494 -4.523588e-05 
  892000    2.4280203 0.0021664135    284904.75    3449711.7 -0.00031900739 6.8119662e-05 -5.1001656e-05 
  893000    2.4270173 0.0021758438    284904.75    3453028.6 -0.00030786575 9.7561583e-05 3.469222e-05 
  894000    2.4301809 0.0021641806    284904.75    3456228.8 -0.00032955889 0.0001176242 3.1893051e-05 
  895000    2.4273989  0.002166183    284904.75    3459321.8 -0.00030583259 0.00011761631 6.5434644e-05 
  896000    2.4288418 0.0021867475    284904.75    3462499.3 -0.00026060061 5.755051e-05 -7.1315669e-05 
  897000     2.428826 0.0021644116    284904.75    3465633.6 -0.00021618788 5.9011183e-05 -0.00016742374 
  898000    2.4268635 0.0021647187    284904.75    3468778.8 -0.00025486281 -1.7755327e-05 -0.00023456331 
  899000    2.4276947 0.0021662984    284904.75    3471884.7 -0.00024120817 -3.9536814e-05 -0.00026142591 
  900000     2.426516 0.0021664393    284904.75      3475101 -0.00027023981 -3.5231256e-05 -0.00023909677 
  901000    2.4291047 0.0021643078    284904.75    3478359.2 -0.0002190871 -6.7086964e-06 -0.00021683337 
  902000    2.4268938 0.0021672162    284904.75    3481659.3 -0.0001993512 -6.6762972e-05 -0.00023745848 
  903000    2.4287642 0.0021683903    284904.75    3485127.7 -0.00013168017 -8.0338048e-05 -0.00030085847 
  904000    2.4262489 0.0021656815    284904.75    3488605.5 -0.0002231604 -0.00015494199 -0.00023744614 
  905000    2.4273833 0.0021630425    284904.75    3491802.6 -0.00025349971 -0.00012500292 -7.6291437e-05 
  906000     2.424978 0.0021679989    284904.75    3495062.8 -0.00018632502 -0.0001605416 -0.00010827138 
  907000    2.4283165 0.0021657881    284904.75    3498371.8 -7.1150915e-05 -0.00030999149 -3.755088e-05 
  908000    2.4268064 0.0021666372    284904.75    3501707.1 -4.1648314e-05 -0.00033705815 -2.7746937e-05 
  909000    2.4251784 0.0021677032    284904.75    3504939.2 -6.6964491e-05 -0.00039689572 -0.00010352442 
  910000    2.4272949 0.0021832448    284904.75    3508163.8 -8.5235615e-05 -0.00049941627 -9.7412328e-05 
  911000    2.4258549 0.0021666211    284904.75    3511405.3 -4.1872028e-05 -0.00049880009 -6.4398854e-05 
  912000    2.4272816 0.0021649328    284904.75      3514570 -7.640162e-05 -0.00050035392 -7.3830406e-05 
  913000    2.4274326 0.0021676659    284904.75      3517756 -6.1125822e-05 -0.00049564547 -5.5979834e-05 
  914000    2.4283392 0.0021644463    284904.75    3520936.3 -5.5253552e-05 -0.00052800299 -5.9551361e-06 
  915000    2.4272948 0.0021693348    284904.75    3524013.2 -2.6472855e-05 -0.00051081317 -8.9562643e-06 
  916000    2.4249181 0.0021677053    284904.75    3527124.8 -3.4341444e-05 -0.00051663572 -3.792243e-05 
  917000    2.4247558 0.0021681107    284904.75    3530155.6 -4.536695e-05 -0.00054075461 -0.00028237645 
  918000    2.4254698 0.0021667951    284904.75    3533216.1 1.4992791e-05 -0.00053600013 -0.00026765354 
  919000    2.4283318 0.0021637826    284904.75    3536333.7 1.1340908e-05 -0.00054890824 -0.00028391099 
  920000    2.4296596 0.0021816118    284904.75    3539506.2 4.7594485e-06 -0.00050653955 -0.00031111963 
  921000     2.428786 0.0021721097    284904.75    3542687.6 -2.2655756e-05 -0.00056615208 -0.00027056939 
  922000    2.4268103 0.0021647094    284904.75    3545910.9 -6.5327264e-05 -0.00050038795 -0.00030021553 
  923000    2.4279992 0.0021652127    284904.75    3549042.3 0.00017919629 -0.00041008381 -0.00039212497 
  924000    2.4298185 0.0021619675    284904.75    3552158.4 0.00011530301 -0.00035330645 -0.00038400827 
  925000    2.4245614 0.0021684304    284904.75    3555267.1 0.00017844379 -0.00036293594 -0.00043894472 
  926000    2.4271878  0.002171166    284904.75    3558408.1 0.00017599257 -0.00035718678 -0.00044565868 
  927000    2.4270002 0.0021639996    284904.75    3561702.4 6.6060745e-05 -0.00041844134 -0.00053027361 
  928000    2.4298172  0.002160888    284904.75    3565162.3 6.6101142e-05 -0.00042952065 -0.0004972751 
  929000     2.425319 0.0021672676    284904.75    3568774.1 2.6288812e-05 -0.00042927029 -0.0005022307 
  930000    2.4328232 0.0021602887    284904.75    3572373.6 4.8215481e-05 -0.00040897649 -0.00050448981 
  931000    2.4305356 0.0021647533    284904.75    3576052.7 -5.9199046e-05 -0.00035192428 -0.00054946828 
  932000    2.4280225 0.0021651197    284904.75    3579822.9 -5.1941901e-05 -0.00032526346 -0.00049630076 
  933000    2.4275706 0.0021679833    284904.75    3583576.8 -6.7515233e-05 -0.00029631181 -0.00047069123 
  934000     2.430478 0.0021635179    284904.75    3587443.1 -0.0001188101 -0.00025057587 -0.00048555637 
  935000    2.4303569 0.0021642648    284904.75    3591482.6 -0.00011618804 -0.00030385988 -0.00046350241 
  936000    2.4312268  0.002167084    284904.75    3595521.8 -0.00010172933 -0.00039411031 -0.0004212114 
  937000    2.4261644 0.0021661969    284904.75    3599493.2 -0.00011940137 -0.00035513792 -0.00044211737 
  938000    2.4283836 0.0021636762    284904.75    3603494.5 -2.2079859e-05 -0.00031710724 -0.00045655699 
  939000    2.4251677 0.0021678257    284904.75    3607378.5 -5.0655755e-05 -0.00033965922 -0.00049977957 
  940000    2.4233801 0.0022081392    284904.75    3611376.4 -0.00011222786 -0.00029364941 -0.00036361673 
  941000    2.4305656 0.0021702988    284904.75    3615130.4 -0.00012574333 -0.00034167753 -0.00054930428 
  942000    2.4276562 0.0021727741    284904.75    3618871.5 -0.00010665852 -0.00042118347 -0.00066656115 
  943000    2.4266677 0.0021659165    284904.75    3622664.8 -0.00011036712 -0.00044957694 -0.00065782325 
  944000     2.426854 0.0021665219    284904.75    3626505.2 -0.00013885609 -0.00043041447 -0.00065676216 
  945000    2.4172182 0.0022429173    284904.75    3630329.3 -0.00013544446 -0.00010577087 -0.0006801289 
  946000     2.427198 0.0021730872    284904.75      3634104 -0.00014598832 -0.00052324316 -0.00048846915 
  947000    2.4269117 0.0021648301    284904.75    3637954.1 -0.00010583553 -0.00052906469 -0.00054280113 
  948000    2.4267796 0.0021654166    284904.75    3641811.7 -9.4542247e-05 -0.0005024282 -0.00054191448 
  949000    2.4300835  0.002166671    284904.75    3645709.7 -0.0001054434 -0.00048963233 -0.0005438834 
  950000     2.427708 0.0021646506    284904.75    3649572.3 -0.00012851392 -0.00046164708 -0.00050117946 
  951000    2.4256483 0.0021671422    284904.75      3653557 -0.00012947447 -0.00046421775 -0.00046318733 
  952000    2.4280286 0.0021663963    284904.75    3657578.9 -0.00010208489 -0.0004657375 -0.00048484022 
  953000     2.430791 0.0021813967    284904.75    3661611.1 1.8515653e-05 -0.00046422552 -0.00048685049 
  954000    2.4264818 0.0022157102    284904.75    3665672.8 0.00017181927 -0.00048510613 -0.00053510428 
  955000    2.4282844 0.0021652962    284904.75    3669730.5 3.6164285e-05 -0.0004653692 -0.00047147871 
  956000    2.4244683  0.002168935    284904.75    3673647.9 2.6157524e-05 -0.00052834937 -0.00044620752 
  957000    2.4252397 0.0021673142    284904.75    3677450.2 -9.6534314e-06 -0.00054381644 -0.00040985195 
  958000    2.4288537 0.0021910405    284904.75    3681268.3 2.1831583e-05 -0.00061751589 -0.00036780328 
  959000    2.4311294 0.0021730825    284904.75      3685109 -9.8065168e-05 -0.00058938751 -0.0003769878 
  960000    2.4256059 0.0021666465    284904.75    3688969.3 -0.00016969224 -0.00057596447 -0.00027786705 
  961000    2.4255262 0.0021663635    284904.75    3693150.7 -0.00017524751 -0.00058980921 -0.00024610283 
  962000     2.429207 0.0021699079    284904.75    3697379.4 -0.00019638575 -0.00068203921 -0.00029177267 
  963000    2.4246668 0.0021683561    284904.75    3701646.8 -0.00019559539 -0.00072066301 -0.00020964698 
  964000    2.4261726 0.0021905639    284904.75      3706068 -0.00030552869 -0.00070517882 -0.00013884487 
  965000    2.4272389  0.002204698    284904.75    3710611.6 -0.00026170106 -0.0006681032 -0.00023241277 
  966000    2.4249889 0.0021680607    284904.75    3715272.4 -0.00029228379 -0.00072141591 -0.00021502099 
  967000    2.4314941 0.0021796331    284904.75      3719978 -0.0002774882 -0.00073768172 -0.0002652129 
  968000    2.4255817  0.002167004    284904.75    3724697.7 -0.00030694905 -0.00067752324 -0.00026178182 
  969000    2.4267007 0.0021654828    284904.75      3729437 -0.00032405129 -0.0006780881 -0.00027992529 
  970000    2.4248758 0.0021683255    284904.75    3734224.7 -0.00032101103 -0.00062904264 -0.00029790808 
  971000    2.4261555 0.0021656703    284904.75    3739036.6 -0.0003388217 -0.00062655114 -0.00024972606 
  972000    2.4253391 0.0021674677    284904.75    3743821.7 -0.00032308161 -0.00060661277 -0.00030552406 
  973000    2.4254269 0.0021670877    284904.75    3748658.3 -0.00041855641 -0.00059372278 -0.00029101005 
  974000     2.427217 0.0021887364    284904.75    3753405.6 -0.00035481874 -0.00063478653 -0.00037103925 
  975000    2.4279162 0.0021702872    284904.75    3758217.2 -0.00041286745 -0.0004892712 -0.00026121181 
  976000    2.4253541 0.0021675401    284904.75    3763076.2 -0.00039708247 -0.0005229789 -0.00024061712 
  977000     2.424566 0.0021682991    284904.75    3768114.1 -0.00033819102 -0.00044504313 -0.00029746798 
  978000    2.4333009 0.0021684623    284904.75    3773309.1 -0.00031416816 -0.00052922385 -0.00030409836 
  979000    2.4268883  0.002167315    284904.75    3778634.4 -0.00036581503  -0.00051418 -0.00029860142 
  980000    2.4278637 0.0021701939    284904.75    3783995.5 -0.00029035881 -0.0004588345 -0.00031912451 
  981000    2.4252211 0.0021668928    284904.75    3789238.5 -0.00030153393 -0.0004960561 -0.00035146594 
  982000    2.4288231 0.0021629509    284904.75    3794157.4 -0.00028602439 -0.00048546257 -0.00031937357 
  983000    2.4291265 0.0021648184    284904.75    3798984.1 -0.00029730219 -0.00051061701 -0.0002980531 
  984000    2.4255216 0.0021661752    284904.75    3803856.4 -0.00027350858 -0.00048928102 -0.00035703021 
  985000    2.4289703 0.0021638271    284904.75    3808736.2 -0.000221578 -0.00049734584 -0.00033784905 
  986000    2.4273102 0.0021726525    284904.75    3813650.8 -0.00019988884 -0.00051921815 -0.00046411018 
  987000    2.4284399 0.0021618195    284904.75    3818486.8 -0.00029592573 -0.00051765586 -0.00043612891 
  988000    2.4274712 0.0021641343    284904.75    3823214.8 -0.00038654866 -0.00049748858 -0.00015641669 
  989000    2.4246318 0.0021683352    284904.75    3827843.4 -0.000394074 -0.0004718777 -0.00017093699 
  990000    2.4250592 0.0021676501    284904.75    3832449.6 -0.00037130982 -0.00044317713 -0.00015374342 
  991000    2.4248224 0.0021681381    284904.75    3837016.3 -0.00034329783 -0.00042838853 -0.00018157178 
  992000    2.4306619 0.0021747293    284904.75    3841584.4 -0.00031870735 -0.00043782434 -0.00014531229 
  993000    2.4251563 0.0021672233    284904.75    3846144.1 -0.00036240023 -0.00045515691 -0.00011574851 
  994000    2.4253228 0.0021905889    284904.75    3850756.4 -0.00037299608 -0.00045587544 -0.00012263445 
  995000    2.4288913 0.0021829353    284904.75    3855441.2 -0.00047920028 -0.00035734711 -7.2830505e-05 
  996000    2.4253784 0.0022465048    284904.75    3860049.2 -0.00028605143 -0.00029995359 -0.00011710108 
  997000    2.4234234 0.0022238174    284904.75    3864679.5 -0.00029832837 -0.00029948131 -0.00013235917 
  998000    2.4322819 0.0021603052    284904.75      3869426 -0.00022307266 -0.0003194297 -0.000213783 
  999000    2.4260309 0.0021661687    284904.75    3874200.6 -0.00021554942 -0.00032695343 -0.00020890571 
 1000000    2.4299822 0.0021679876    284904.75    3878963.3 -0.00023221892 -0.00035595106 -0.00024944582 
Loop time of 202.897 on 1 procs for 1000000 steps with 256 atoms

Pair  time (%) = 2.56896 (1.26614)
Neigh time (%) = 14.3468 (7.07098)
Comm  time (%) = 1.69597 (0.835881)
Outpt time (%) = 0.0874879 (0.0431195)
Other time (%) = 184.197 (90.7839)

Nlocal:    256 ave 256 max 256 min
Histogram: 1 0 0 0 0 0 0 0 0 0
Nghost:    80 ave 80 max 80 min
Histogram: 1 0 0 0 0 0 0 0 0 0
Neighs:    13 ave 13 max 13 min
Histogram: 1 0 0 0 0 0 0 0 0 0

Total # of neighbors = 13
Ave neighs/atom = 0.0507812
Neighbor list builds = 73137
Dangerous builds = 0
#	run			10000
	unfix			1
	uncompute		myKE
	uncompute		myPE
	uncompute		myStress
	uncompute		flux
	uncompute		myDis
	unfix			JJ

	next seed
	next iseed
jump lmp.in.gk loop_seed
variable iseed loop 10
variable seed index 11111 22222 33333 44444 55555 66666 77777 88888 99999 11112
clear

# Lennard-Jones
#Prepare Geometry---------------------------------------------------------------
units			lj
atom_style		atomic
read_data		lmp.in.x0.1
  orthogonal box = (0 0 0) to (65.8011 65.8011 65.8011)
  1 by 1 by 1 MPI processor grid
  256 atoms
#Initialize Structure-----------------------------------------------------------
#mass           	1  1.0
#group         		Ar type = 1
#LJ Potentials------------------------------------------------------------------
pair_style		lj/cut 2.5
pair_coeff		* * 1.0 1.0
pair_modify          	shift yes
#pair_modify   	tail no

#Variables----------------------------------------------------------------------
#LJ Parameters
variable    	kB 		equal 1.3806504e-23 	# [J/K] Boltzmann
variable	sigma_Ar 	equal 3.4e-10 		# m
variable	eps_Ar		equal 1.67e-21		# J
variable	mass_Ar		equal 6.63e-26		# kg
variable	tau_Ar		equal 2.1423e-12	# s
#thermo Parameters
variable    	T_melt 		equal 300*(${kB}/${eps_Ar})
variable    	T_melt 		equal 300*(1.3806504000000001236e-23/${eps_Ar})
variable    	T_melt 		equal 300*(1.3806504000000001236e-23/1.6699999999999999942e-21)
variable	T_0K		equal 0.00001
variable	T_2_5K		equal 2.5*(${kB}/${eps_Ar})
variable	T_2_5K		equal 2.5*(1.3806504000000001236e-23/${eps_Ar})
variable	T_2_5K		equal 2.5*(1.3806504000000001236e-23/1.6699999999999999942e-21)
variable	T_5K		equal 5*(${kB}/${eps_Ar})
variable	T_5K		equal 5*(1.3806504000000001236e-23/${eps_Ar})
variable	T_5K		equal 5*(1.3806504000000001236e-23/1.6699999999999999942e-21)
variable	T_10K		equal 10*(${kB}/${eps_Ar})
variable	T_10K		equal 10*(1.3806504000000001236e-23/${eps_Ar})
variable	T_10K		equal 10*(1.3806504000000001236e-23/1.6699999999999999942e-21)
variable	T_15K		equal 15*(${kB}/${eps_Ar})
variable	T_15K		equal 15*(1.3806504000000001236e-23/${eps_Ar})
variable	T_15K		equal 15*(1.3806504000000001236e-23/1.6699999999999999942e-21)
variable	T_300K		equal 300*(${kB}/${eps_Ar})
variable	T_300K		equal 300*(1.3806504000000001236e-23/${eps_Ar})
variable	T_300K		equal 300*(1.3806504000000001236e-23/1.6699999999999999942e-21)

variable   	dt 		equal 0.002
variable	quench_rate	equal 1.0
variable	quench_length 	equal 10000
#kappa parameters
variable    	p 		equal 100000 		# correlation length
variable    	s 		equal 5  		# sample interval
variable    	d 		equal $p*$s 		# dump interval
variable    	d 		equal 100000*$s 		
variable    	d 		equal 100000*5 		

#SED parameters
variable	w_step		equal 2^5
variable	w_total		equal 2^16
variable	t_total		equal 2^18
variable	num_ffts	equal ${t_total}/${w_total}
variable	num_ffts	equal 262144/${w_total}
variable	num_ffts	equal 262144/65536

#------------ RUN TEMP ---------------------------------------------------------------------
variable 	T_run 		equal ${T_300K}
variable 	T_run 		equal 2.4802102994011980819
#------------ RUN TEMP ---------------------------------------------------------------------

log 	log_heat_${iseed}.lammps
log 	log_heat_8.lammps
