
#------------ NVE rescale ---------------------------------------------------------------------

	velocity 		all create ${T_run} ${seed} rot yes dist gaussian
	velocity 		all create 2.4802102994011980819 ${seed} rot yes dist gaussian
	velocity 		all create 2.4802102994011980819 11112 rot yes dist gaussian

	fix 			1 all nve
	fix 			2 all temp/rescale 1 ${T_run} ${T_run} 0.01 1.0
	fix 			2 all temp/rescale 1 2.4802102994011980819 ${T_run} 0.01 1.0
	fix 			2 all temp/rescale 1 2.4802102994011980819 2.4802102994011980819 0.01 1.0
	timestep		${dt}
	timestep		0.0020000000000000000416
	thermo_style  		custom step temp press etotal vol
	thermo			1000
	run             	200000
Memory usage per processor = 2.23315 Mbytes
Step Temp Press TotEng Volume 
       0    2.4802103 0.0022091225    -1.815808    284904.75 
    1000    2.4739969 0.0016104766    2.7381916    284904.75 
    2000    2.4743311 0.0018940514    2.8578311    284904.75 
    3000    2.4772549 0.0020722532    2.8576337    284904.75 
    4000    2.4833694 0.0018998887    2.8865477    284904.75 
    5000    2.4778269 0.0021084538     2.903362    284904.75 
    6000     2.475035 0.0020971787    2.8873696    284904.75 
    7000    2.4787208 0.0022229608    2.9201489    284904.75 
    8000    2.4740836 0.0020403596    2.8697303    284904.75 
    9000     2.487831 0.0020184568    2.8550122    284904.75 
   10000     2.474536 0.0020404656    2.9031679    284904.75 
   11000    2.4785727 0.0018940139    2.9339232    284904.75 
   12000    2.4772159 0.0020589137    2.9329399    284904.75 
   13000    2.4791746 0.0021216235    2.9322268    284904.75 
   14000    2.4786573 0.0021420241    2.9662029    284904.75 
   15000    2.4768768 0.0022189905    2.9664547    284904.75 
   16000    2.4705859 0.0019965376    3.0126174    284904.75 
   17000    2.4830406 0.0020967801    3.0127009    284904.75 
   18000    2.4839992 0.0019642503    3.0609756    284904.75 
   19000    2.4880705 0.0021859727    3.0457123    284904.75 
   20000    2.4839122 0.0021232872    3.0467506    284904.75 
   21000    2.4704245 0.0021105817     3.047062    284904.75 
   22000    2.4772359 0.0020922647    3.0642588    284904.75 
   23000    2.4842824 0.0020587841    3.0798095    284904.75 
   24000    2.4761108 0.0020931744    3.0642874    284904.75 
   25000    2.4838207 0.0019799799    3.0949944    284904.75 
   26000     2.472523 0.0021215606    3.0796865    284904.75 
   27000    2.4735962  0.002136882     3.095089    284904.75 
   28000    2.4746094 0.0021183085    3.0845728    284904.75 
   29000    2.4879767  0.002000788    3.0989304    284904.75 
   30000    2.4810407 0.0021254126    3.0837667    284904.75 
   31000    2.4758636 0.0019510523    3.0990367    284904.75 
   32000    2.4788095 0.0021382831    3.0992828    284904.75 
   33000    2.4841908  0.002365278    3.1516761    284904.75 
   34000    2.4842701 0.0021462548    3.1511904    284904.75 
   35000    2.4795715 0.0022564532    3.1668822    284904.75 
   36000    2.4838561 0.0022600048    3.1518336    284904.75 
   37000    2.4814285 0.0020814492    3.1518546    284904.75 
   38000    2.4827079 0.0021712191    3.1518433    284904.75 
   39000    2.4806195 0.0021120782     3.167734    284904.75 
   40000    2.4830582 0.0021696426    3.1827835    284904.75 
   41000    2.4801396 0.0020493341    3.1827207    284904.75 
   42000    2.4883131 0.0021303826     3.197794    284904.75 
   43000    2.4837687 0.0021368544    3.2130444    284904.75 
   44000     2.473061 0.0021417529    3.2124932    284904.75 
   45000    2.4789984  0.002185164    3.2100983    284904.75 
   46000    2.4843743 0.0021028429    3.1951035    284904.75 
   47000    2.4816546   0.00205973    3.2254226    284904.75 
   48000    2.4771128 0.0020790806    3.1805291    284904.75 
   49000    2.4757604 0.0021420391    3.2119639    284904.75 
   50000    2.4768893 0.0020578647    3.2118502    284904.75 
   51000    2.4781437 0.0020948539    3.2270654    284904.75 
   52000    2.4846667 0.0021471302     3.242409    284904.75 
   53000    2.4840473 0.0020983464    3.2432051    284904.75 
   54000    2.4779393 0.0022552435    3.2282507    284904.75 
   55000    2.4829383 0.0022288739    3.2151943    284904.75 
   56000     2.477408 0.0020488745     3.229873    284904.75 
   57000    2.4775303 0.0022660547    3.2138808    284904.75 
   58000    2.4789696 0.0020256496    3.2622607    284904.75 
   59000    2.4860296 0.0021825643    3.2469639    284904.75 
   60000    2.4815731 0.0021249449    3.2477466    284904.75 
   61000    2.4807248 0.0021247184    3.2629276    284904.75 
   62000    2.4794653 0.0020646316    3.2776575    284904.75 
   63000    2.4761368 0.0021195796     3.307784    284904.75 
   64000    2.4753066 0.0021387213    3.3084757    284904.75 
   65000    2.4845639 0.0020797867    3.3079525    284904.75 
   66000    2.4758997 0.0021296067    3.3231969    284904.75 
   67000    2.4849301 0.0020932476    3.3384832    284904.75 
   68000    2.4806007 0.0021786242    3.3388552    284904.75 
   69000    2.4864523 0.0021887741     3.339436    284904.75 
   70000    2.4812741 0.0021715204     3.339407    284904.75 
   71000    2.4738484 0.0021720756    3.3401256    284904.75 
   72000    2.4808441 0.0022096101    3.3399363    284904.75 
   73000    2.4846244 0.0021543664    3.3399349    284904.75 
   74000    2.4880705 0.0021557041    3.3398885    284904.75 
   75000    2.4876538 0.0020731479    3.3425452    284904.75 
   76000    2.4781178 0.0021339893    3.3574932    284904.75 
   77000    2.4876849 0.0021686759    3.3725108    284904.75 
   78000     2.478636 0.0021129256    3.3573367    284904.75 
   79000    2.4882557 0.0021459399    3.3592409    284904.75 
   80000    2.4821552 0.0021637003    3.3578534    284904.75 
   81000    2.4793918  0.002118538    3.3595155    284904.75 
   82000    2.4801405  0.002119163    3.3451941    284904.75 
   83000    2.4773827 0.0021266264    3.3753813    284904.75 
   84000    2.4710417 0.0020660576    3.3755997    284904.75 
   85000    2.4813252 0.0021496218    3.3790676    284904.75 
   86000    2.4748744 0.0020956837    3.3639744    284904.75 
   87000     2.473077 0.0021945976     3.378466    284904.75 
   88000    2.4709836 0.0021401391     3.378469    284904.75 
   89000    2.4819361 0.0021865031    3.3939907    284904.75 
   90000    2.4722957 0.0021627179    3.4089495    284904.75 
   91000    2.4879076 0.0021051963    3.4086361    284904.75 
   92000      2.48989 0.0020517363    3.4085964    284904.75 
   93000    2.4810735 0.0020905497    3.4088683    284904.75 
   94000    2.4890696 0.0021595446    3.4094551    284904.75 
   95000    2.4829344 0.0021166289    3.3947642    284904.75 
   96000    2.4758577 0.0021781077    3.4251794    284904.75 
   97000    2.4768362 0.0021788358    3.4249426    284904.75 
   98000    2.4752293 0.0021329486    3.4398039    284904.75 
   99000     2.471498 0.0021865805    3.4403852    284904.75 
  100000    2.4765428 0.0021385168    3.4401306    284904.75 
  101000    2.4822505 0.0021757257    3.4703265    284904.75 
  102000    2.4807764 0.0021867362    3.4702859    284904.75 
  103000    2.4775889 0.0022286484    3.4702572    284904.75 
  104000    2.4780227 0.0022470468    3.4744673    284904.75 
  105000    2.4768999 0.0021049705    3.4749464    284904.75 
  106000    2.4841124 0.0021961705    3.4900299    284904.75 
  107000    2.4798419 0.0021624157    3.4900448    284904.75 
  108000    2.4843393  0.002173872    3.4898829    284904.75 
  109000     2.479973 0.0021427791    3.4892037    284904.75 
  110000    2.4782827 0.0021378727    3.4895427    284904.75 
  111000    2.4756285 0.0021449017     3.474156    284904.75 
  112000     2.482187 0.0021880866    3.4891749    284904.75 
  113000    2.4804543 0.0021246745    3.4897153    284904.75 
  114000    2.4803888  0.002156055    3.4896711    284904.75 
  115000    2.4800549 0.0021793087     3.505092    284904.75 
  116000    2.4895143 0.0021527934    3.5200513    284904.75 
  117000     2.484097 0.0021512357    3.5200783    284904.75 
  118000    2.4824215 0.0021382469     3.521047    284904.75 
  119000    2.4708628  0.002218804    3.5210481    284904.75 
  120000    2.4859397 0.0021369151    3.5359667    284904.75 
  121000    2.4811086 0.0022202284    3.5210101    284904.75 
  122000    2.4815496 0.0022233917     3.521011    284904.75 
  123000    2.4791919 0.0021566311     3.523234    284904.75 
  124000    2.4755697 0.0021536945    3.5232344    284904.75 
  125000    2.4808438 0.0021416544    3.5232334    284904.75 
  126000     2.471355 0.0020921409    3.5229022    284904.75 
  127000    2.4842459 0.0022400508    3.5381709    284904.75 
  128000    2.4873717 0.0022130273    3.5381695    284904.75 
  129000    2.4826915 0.0021885525    3.5381647    284904.75 
  130000    2.4882815 0.0021898858    3.5382899    284904.75 
  131000    2.4839333 0.0022173711    3.5382914    284904.75 
  132000    2.4779905 0.0022166034    3.5382934    284904.75 
  133000    2.4824659 0.0022324891    3.5382921    284904.75 
  134000    2.4816143 0.0022339427    3.5384775    284904.75 
  135000    2.4757659 0.0022095592    3.5388708    284904.75 
  136000    2.4759759 0.0022203545    3.5389058    284904.75 
  137000    2.4823744 0.0021673745    3.5547549    284904.75 
  138000    2.4853104  0.002213881    3.5551883    284904.75 
  139000    2.4801959 0.0022159586    3.5553111    284904.75 
  140000    2.4801382  0.002208409    3.5403218    284904.75 
  141000    2.4766493 0.0021738794    3.5559929    284904.75 
  142000    2.4805801 0.0022094208    3.5708025    284904.75 
  143000    2.4790448 0.0022165648    3.5860215    284904.75 
  144000    2.4833204 0.0022154098    3.5708932    284904.75 
  145000     2.480963 0.0021772859    3.5710708    284904.75 
  146000    2.4876676 0.0021694256    3.5861058    284904.75 
  147000    2.4882283 0.0022207119    3.6016378    284904.75 
  148000    2.4817398 0.0022117505    3.6036699    284904.75 
  149000    2.4794242 0.0021494741    3.6036809    284904.75 
  150000    2.4720987 0.0021586991    3.6036818    284904.75 
  151000    2.4766669 0.0021882309    3.6036798    284904.75 
  152000    2.4860138 0.0021780566    3.6196589    284904.75 
  153000    2.4776007 0.0021787572    3.6199559    284904.75 
  154000    2.4791529 0.0022161612    3.6195948    284904.75 
  155000    2.4852056 0.0022306067    3.6151678    284904.75 
  156000    2.4805219  0.002199801    3.6304283    284904.75 
  157000    2.4854373 0.0022306264    3.6311454    284904.75 
  158000    2.4783875 0.0022976437    3.6316106    284904.75 
  159000    2.4781846 0.0022131104    3.6292191    284904.75 
  160000    2.4821154 0.0021952406    3.6292173    284904.75 
  161000    2.4801524  0.002217015    3.6292179    284904.75 
  162000    2.4877137  0.002193541    3.6316689    284904.75 
  163000    2.4795653 0.0023201398    3.6385862    284904.75 
  164000    2.4813734 0.0021889664    3.6381047    284904.75 
  165000    2.4840594 0.0022250935    3.6381032    284904.75 
  166000    2.4825589 0.0021730432    3.6381043    284904.75 
  167000     2.483506 0.0022296072    3.6379455    284904.75 
  168000    2.4774047 0.0022166813    3.6379475    284904.75 
  169000    2.4865963 0.0021855066    3.6379469    284904.75 
  170000    2.4839545 0.0022099848    3.6379471    284904.75 
  171000    2.4805812 0.0021724995    3.6376661    284904.75 
  172000    2.4821466 0.0022031584    3.6376656    284904.75 
  173000    2.4769592 0.0021903379    3.6373132    284904.75 
  174000    2.4770914 0.0021992341    3.6373129    284904.75 
  175000    2.4851093 0.0022357059    3.6376151    284904.75 
  176000    2.4794638 0.0021948047    3.6407918    284904.75 
  177000    2.4861588 0.0021993527    3.6442961    284904.75 
  178000    2.4868523 0.0021948779    3.6441623    284904.75 
  179000    2.4796872 0.0022057384    3.6434371    284904.75 
  180000    2.4799782 0.0022036256    3.6425439    284904.75 
  181000     2.479997 0.0021936475     3.643367    284904.75 
  182000    2.4781418 0.0021621825    3.6433656    284904.75 
  183000    2.4795509 0.0022032442    3.6432182    284904.75 
  184000    2.4840374 0.0022053308     3.643218    284904.75 
  185000    2.4772382 0.0021834421    3.6432183    284904.75 
  186000    2.4836395 0.0022107947     3.644787    284904.75 
  187000    2.4784139 0.0021700266    3.6447867    284904.75 
  188000    2.4718156 0.0021911375    3.6304809    284904.75 
  189000    2.4752064  0.002170986    3.6311705    284904.75 
  190000    2.4862069 0.0022032355    3.6463224    284904.75 
  191000    2.4787863  0.002199015    3.6476046    284904.75 
  192000    2.4804027 0.0022053109    3.6476023    284904.75 
  193000    2.4813993 0.0022018379     3.649136    284904.75 
  194000    2.4823271  0.002205412    3.6490827    284904.75 
  195000    2.4799954 0.0022517953    3.6490863    284904.75 
  196000    2.4778296 0.0021753317    3.6490881    284904.75 
  197000     2.477093  0.002177958    3.6490883    284904.75 
  198000     2.475885 0.0021949784    3.6490885    284904.75 
  199000    2.4749352 0.0021992178    3.6492219    284904.75 
  200000    2.4729588 0.0021987655    3.6494765    284904.75 
Loop time of 6.31107 on 1 procs for 200000 steps with 256 atoms

Pair  time (%) = 1.12458 (17.8192)
Neigh time (%) = 3.83397 (60.7499)
Comm  time (%) = 0.297508 (4.71405)
Outpt time (%) = 0.00750208 (0.118872)
Other time (%) = 1.04751 (16.598)

Nlocal:    256 ave 256 max 256 min
Histogram: 1 0 0 0 0 0 0 0 0 0
Nghost:    74 ave 74 max 74 min
Histogram: 1 0 0 0 0 0 0 0 0 0
Neighs:    27 ave 27 max 27 min
Histogram: 1 0 0 0 0 0 0 0 0 0

Total # of neighbors = 27
Ave neighs/atom = 0.105469
Neighbor list builds = 19398
Dangerous builds = 15997
#	run             	1000
	unfix 			1
	unfix 			2

#------------ NVE -----------------------------------------------------------------------------

	fix 			1 all nve
	timestep		${dt}
	timestep		0.0020000000000000000416
	thermo_style  		custom step temp press etotal vol
	thermo			1000
	run             	100000
Memory usage per processor = 2.23315 Mbytes
Step Temp Press TotEng Volume 
  200000    2.4729588 0.0021987655    3.6494765    284904.75 
  201000    2.4742915  0.002192707    3.6494747    284904.75 
  202000    2.4715666 0.0021911629    3.6494764    284904.75 
  203000    2.4810541 0.0021984958    3.6494774    284904.75 
  204000     2.475557 0.0022047726    3.6494789    284904.75 
  205000    2.4708655 0.0021948097    3.6494801    284904.75 
  206000    2.4715196 0.0021931307    3.6494805    284904.75 
  207000     2.470281   0.00220022    3.6494798    284904.75 
  208000    2.4726955 0.0022375597    3.6494771    284904.75 
  209000    2.4617853 0.0022383308    3.6494899    284904.75 
  210000    2.4683623 0.0021895055    3.6494827    284904.75 
  211000    2.4621581 0.0022024249    3.6494814    284904.75 
  212000    2.4656476 0.0021899136    3.6494788    284904.75 
  213000    2.4660773 0.0021820046    3.6494809    284904.75 
  214000    2.4653343 0.0021936906    3.6494818    284904.75 
  215000    2.4635403 0.0021889023    3.6494807    284904.75 
  216000    2.4655977 0.0021984955    3.6494807    284904.75 
  217000    2.4632607 0.0021752724    3.6494807    284904.75 
  218000    2.4525581  0.002274401     3.649487    284904.75 
  219000    2.4625361 0.0021731241    3.6494844    284904.75 
  220000    2.4609693 0.0022000465    3.6494821    284904.75 
  221000    2.4612888 0.0021814897    3.6494829    284904.75 
  222000    2.4580846 0.0021873603    3.6494846    284904.75 
  223000    2.4602524 0.0022115363    3.6494811    284904.75 
  224000    2.4644995 0.0021873139    3.6494818    284904.75 
  225000    2.4599292 0.0022139736    3.6494756    284904.75 
  226000    2.4585843 0.0021709891      3.64948    284904.75 
  227000     2.455903 0.0022140605    3.6494814    284904.75 
  228000    2.4568433 0.0022032541    3.6494818    284904.75 
  229000    2.4577945 0.0021892328    3.6494808    284904.75 
  230000    2.4531497 0.0021755624    3.6494812    284904.75 
  231000    2.4570547   0.00219681    3.6494812    284904.75 
  232000    2.4577318  0.002185586    3.6494824    284904.75 
  233000    2.4553692  0.002181722    3.6494785    284904.75 
  234000    2.4562065  0.002178918    3.6494783    284904.75 
  235000    2.4595054 0.0021760938    3.6494804    284904.75 
  236000      2.45802 0.0022423359    3.6494816    284904.75 
  237000    2.4593449 0.0021921578    3.6494794    284904.75 
  238000    2.4539121 0.0022028811    3.6494801    284904.75 
  239000    2.4546793 0.0021789451     3.649479    284904.75 
  240000     2.452846  0.002184675    3.6494787    284904.75 
  241000    2.4572186 0.0021782275    3.6494774    284904.75 
  242000    2.4522933 0.0021957061    3.6494773    284904.75 
  243000    2.4544284 0.0021898769    3.6494761    284904.75 
  244000    2.4574348 0.0021811284    3.6494731    284904.75 
  245000     2.451949 0.0021983461    3.6494737    284904.75 
  246000    2.4503819  0.002179901    3.6494746    284904.75 
  247000    2.4514122  0.002179782    3.6494747    284904.75 
  248000    2.4503129 0.0021747185    3.6494739    284904.75 
  249000    2.4506756 0.0021815817    3.6494746    284904.75 
  250000    2.4552366 0.0021931633    3.6494726    284904.75 
  251000    2.4521905 0.0021899227    3.6494742    284904.75 
  252000    2.4535557 0.0021932406    3.6494753    284904.75 
  253000    2.4538703 0.0021882245    3.6494768    284904.75 
  254000    2.4558205 0.0021782114    3.6494781    284904.75 
  255000    2.4549394 0.0022084647    3.6494792    284904.75 
  256000    2.4519743 0.0021797923     3.649477    284904.75 
  257000    2.4574637  0.002207485    3.6494781    284904.75 
  258000    2.4491401 0.0021962421    3.6494795    284904.75 
  259000    2.4461131 0.0022593384    3.6494724    284904.75 
  260000    2.4522373 0.0021814015     3.649477    284904.75 
  261000    2.4508151 0.0021781396    3.6494788    284904.75 
  262000    2.4561189  0.002201277    3.6494782    284904.75 
  263000    2.4545732 0.0021817971    3.6494787    284904.75 
  264000    2.4526768 0.0021784127    3.6494788    284904.75 
  265000    2.4521453 0.0021807384    3.6494784    284904.75 
  266000    2.4527654 0.0021796662    3.6494802    284904.75 
  267000    2.4495014 0.0021811572    3.6494784    284904.75 
  268000    2.4517266 0.0021818818    3.6494799    284904.75 
  269000    2.4506604 0.0021773601    3.6494811    284904.75 
  270000    2.4521894 0.0021893912    3.6494808    284904.75 
  271000    2.4486595 0.0021788299    3.6494814    284904.75 
  272000    2.4491208 0.0021942906    3.6494824    284904.75 
  273000    2.4488637 0.0021796385    3.6494841    284904.75 
  274000    2.4513227 0.0021906649    3.6494843    284904.75 
  275000    2.4480512 0.0021843242    3.6494846    284904.75 
  276000    2.4497144 0.0021936468    3.6494827    284904.75 
  277000    2.4505763 0.0021857323    3.6494832    284904.75 
  278000    2.4517599 0.0021897252    3.6494835    284904.75 
  279000    2.4503607 0.0021820112    3.6494817    284904.75 
  280000    2.4503681 0.0022148095    3.6494792    284904.75 
  281000    2.4482577 0.0021825448    3.6494789    284904.75 
  282000     2.447234 0.0021824556    3.6494773    284904.75 
  283000    2.4516867 0.0021788003    3.6494774    284904.75 
  284000    2.4523456 0.0021832156    3.6494757    284904.75 
  285000    2.4510053 0.0021816392    3.6494752    284904.75 
  286000    2.4484696 0.0021789383     3.649474    284904.75 
  287000    2.4500532 0.0022268401    3.6494773    284904.75 
  288000    2.4463463 0.0021814072    3.6494762    284904.75 
  289000    2.4473433 0.0022026682    3.6494753    284904.75 
  290000    2.4468128 0.0021800238    3.6494742    284904.75 
  291000    2.4498354 0.0021991443    3.6494738    284904.75 
  292000    2.4475807 0.0021785542    3.6494731    284904.75 
  293000    2.4482349 0.0021840072    3.6494728    284904.75 
  294000    2.4527145 0.0021864766    3.6494728    284904.75 
  295000    2.4522519 0.0021851017      3.64947    284904.75 
  296000     2.450205 0.0021826832    3.6494771    284904.75 
  297000     2.449839 0.0021924897    3.6494794    284904.75 
  298000    2.4504041 0.0021778313    3.6494806    284904.75 
  299000    2.4461793 0.0021800607    3.6494803    284904.75 
  300000    2.4480982 0.0021917448    3.6494801    284904.75 
Loop time of 2.35292 on 1 procs for 100000 steps with 256 atoms

Pair  time (%) = 0.171257 (7.2785)
Neigh time (%) = 1.60182 (68.0779)
Comm  time (%) = 0.135443 (5.75641)
Outpt time (%) = 0.00382876 (0.162724)
Other time (%) = 0.44057 (18.7244)

Nlocal:    256 ave 256 max 256 min
Histogram: 1 0 0 0 0 0 0 0 0 0
Nghost:    73 ave 73 max 73 min
Histogram: 1 0 0 0 0 0 0 0 0 0
Neighs:    11 ave 11 max 11 min
Histogram: 1 0 0 0 0 0 0 0 0 0

Total # of neighbors = 11
Ave neighs/atom = 0.0429688
Neighbor list builds = 8369
Dangerous builds = 0
#	run             	10000
	unfix 			1

#------------ kappa -------------------------------------------------------------------------
log 	log_kappa_${iseed}.lammps
log 	log_kappa_10.lammps
