
#------------ NVE rescale ---------------------------------------------------------------------

	velocity 		all create ${T_run} ${seed} rot yes dist gaussian
	velocity 		all create 2.4802102994011980819 ${seed} rot yes dist gaussian
	velocity 		all create 2.4802102994011980819 66666 rot yes dist gaussian

	fix 			1 all nve
	fix 			2 all temp/rescale 1 ${T_run} ${T_run} 0.01 1.0
	fix 			2 all temp/rescale 1 2.4802102994011980819 ${T_run} 0.01 1.0
	fix 			2 all temp/rescale 1 2.4802102994011980819 2.4802102994011980819 0.01 1.0
	timestep		${dt}
	timestep		0.0020000000000000000416
	thermo_style  		custom step temp press etotal vol
	thermo			1000
	run             	200000
Memory usage per processor = 2.23315 Mbytes
Step Temp Press TotEng Volume 
       0    2.4802103 0.0022091225    -1.815808    284904.75 
    1000    2.4794704 0.0017431604     2.785443    284904.75 
    2000    2.4857499 0.0018967766    2.9841526    284904.75 
    3000    2.4820082 0.0018847687    2.9546013    284904.75 
    4000    2.4782503  0.002054562    3.0319237    284904.75 
    5000    2.4781609 0.0020073524    3.0320226    284904.75 
    6000    2.4803742 0.0018897723     3.015135    284904.75 
    7000    2.4790686 0.0019558916    3.0302409    284904.75 
    8000    2.4741636  0.002114364    3.0456555    284904.75 
    9000    2.4732535  0.002091816    3.1077808    284904.75 
   10000    2.4876903 0.0020756199    3.1255075    284904.75 
   11000    2.4752249 0.0021065308    3.0793817    284904.75 
   12000    2.4729378  0.002150431    3.1581408    284904.75 
   13000    2.4895227  0.002156752    3.2042296    284904.75 
   14000    2.4826183 0.0020829163    3.2043682    284904.75 
   15000    2.4726373 0.0020326286    3.2196192    284904.75 
   16000    2.4747413  0.002073073    3.2048701    284904.75 
   17000    2.4795831 0.0021653415    3.2507805    284904.75 
   18000    2.4849464 0.0020711246    3.2664116    284904.75 
   19000    2.4815687 0.0021270959    3.2813572    284904.75 
   20000    2.4782759 0.0021007926    3.2508161    284904.75 
   21000    2.4832358 0.0021519445    3.2659301    284904.75 
   22000    2.4794706 0.0021336372    3.2848516    284904.75 
   23000    2.4791596 0.0021561079    3.3006253    284904.75 
   24000    2.4777669 0.0022280703    3.2854285    284904.75 
   25000    2.4791603 0.0021327343    3.3155838    284904.75 
   26000    2.4814318 0.0022155331    3.3463395    284904.75 
   27000    2.4805676 0.0020895237     3.346352    284904.75 
   28000    2.4830745 0.0021636688    3.3473871    284904.75 
   29000    2.4818933 0.0020584242    3.3508201    284904.75 
   30000    2.4761899 0.0021409794    3.3668705    284904.75 
   31000    2.4706708 0.0021591088    3.3516263    284904.75 
   32000    2.4766374 0.0022042476    3.3816204    284904.75 
   33000    2.4755421 0.0022557608    3.3692669    284904.75 
   34000    2.4720661 0.0021178337    3.3847485    284904.75 
   35000    2.4797625 0.0021032907    3.4034589    284904.75 
   36000    2.4745851 0.0022527598    3.3876217    284904.75 
   37000    2.4730077 0.0021659555    3.3886377    284904.75 
   38000    2.4829831 0.0021367918    3.4037972    284904.75 
   39000    2.4859459 0.0021175433    3.4189936    284904.75 
   40000    2.4824867 0.0021344801    3.4041374    284904.75 
   41000    2.4805171 0.0021101988      3.40591    284904.75 
   42000    2.4806616 0.0021574546    3.4362692    284904.75 
   43000    2.4794099 0.0021266904    3.4362589    284904.75 
   44000    2.4799138 0.0021711492    3.4363077    284904.75 
   45000     2.480951 0.0021383216    3.4360199    284904.75 
   46000    2.4836959 0.0021916372    3.4360224    284904.75 
   47000    2.4878879 0.0021717093    3.4360227    284904.75 
   48000    2.4798433 0.0021893601    3.4514896    284904.75 
   49000    2.4794121 0.0021678074    3.4515563    284904.75 
   50000    2.4809028 0.0021487516    3.4514307    284904.75 
   51000    2.4839674 0.0021938734    3.4515259    284904.75 
   52000    2.4771457 0.0022553576    3.4560585    284904.75 
   53000    2.4777599 0.0021550615    3.4715006    284904.75 
   54000    2.4811103 0.0021382371    3.4856013    284904.75 
   55000    2.4780761 0.0021635173    3.4874902    284904.75 
   56000    2.4768528  0.002198257    3.4874907    284904.75 
   57000    2.4729837 0.0021089398    3.4881431    284904.75 
   58000    2.4840506 0.0022028333    3.4938051    284904.75 
   59000    2.4794262 0.0021668208     3.508358    284904.75 
   60000    2.4841748  0.002183737    3.5083522    284904.75 
   61000    2.4818654 0.0021729468      3.49689    284904.75 
   62000     2.472416 0.0021631867    3.5118007    284904.75 
   63000    2.4765353 0.0021910659    3.5122688    284904.75 
   64000    2.4760605 0.0022505706    3.5121414    284904.75 
   65000    2.4872589 0.0021848112    3.5121399    284904.75 
   66000    2.4778737 0.0021378063     3.512253    284904.75 
   67000    2.4823338 0.0021925905    3.5273348    284904.75 
   68000    2.4869626  0.002142791    3.5123177    284904.75 
   69000    2.4807941 0.0021532498    3.5272697    284904.75 
   70000    2.4889812 0.0021789282     3.527268    284904.75 
   71000    2.4775269 0.0022363665    3.5270831    284904.75 
   72000    2.4841047 0.0021763546    3.5279645    284904.75 
   73000    2.4777211  0.002175706    3.5299787    284904.75 
   74000    2.4855927 0.0021724961    3.5284102    284904.75 
   75000    2.4776964   0.00218129    3.5286789    284904.75 
   76000    2.4857725 0.0021638033    3.5409015    284904.75 
   77000     2.474539 0.0021823176    3.5258537    284904.75 
   78000     2.481999 0.0021887942    3.5415685    284904.75 
   79000    2.4773963 0.0021553383    3.5412224    284904.75 
   80000    2.4825395 0.0021924663    3.5412144    284904.75 
   81000    2.4795332  0.002175861    3.5413113    284904.75 
   82000    2.4720006 0.0021349136    3.5258522    284904.75 
   83000    2.4880658 0.0021657505    3.5408127    284904.75 
   84000    2.4844021  0.002188031    3.5408114    284904.75 
   85000    2.4832255 0.0021652042    3.5446844    284904.75 
   86000    2.4848158 0.0021916321    3.5597308    284904.75 
   87000    2.4793448 0.0022007668    3.5446043    284904.75 
   88000    2.4765039 0.0022000558    3.5446057    284904.75 
   89000    2.4795422 0.0022031509    3.5597839    284904.75 
   90000    2.4816135 0.0022655888    3.5605507    284904.75 
   91000    2.4805708 0.0022261865    3.5455782    284904.75 
   92000    2.4823567 0.0021820411    3.5607923    284904.75 
   93000    2.4863875 0.0022078229     3.560793    284904.75 
   94000    2.4788902 0.0021798309    3.5607932    284904.75 
   95000    2.4768571 0.0022133424     3.564103    284904.75 
   96000    2.4806372 0.0021927384    3.5642815    284904.75 
   97000    2.4826764 0.0022009516    3.5642277    284904.75 
   98000    2.4728861 0.0021741862     3.565109    284904.75 
   99000    2.4774194 0.0021957742    3.5668118    284904.75 
  100000    2.4779888 0.0021377738    3.5668114    284904.75 
  101000    2.4822368 0.0021858613    3.5669022    284904.75 
  102000    2.4774269 0.0021470203    3.5681929    284904.75 
  103000    2.4811125 0.0022244472    3.5831408    284904.75 
  104000    2.4841106 0.0022077423    3.5974302    284904.75 
  105000    2.4797984 0.0022011257    3.5974281    284904.75 
  106000    2.4791589 0.0021810288    3.5975366    284904.75 
  107000    2.4899129 0.0021940327    3.6342227    284904.75 
  108000    2.4793188 0.0021969571     3.619267    284904.75 
  109000    2.4858972 0.0022257221    3.6363649    284904.75 
  110000    2.4874703 0.0022083418    3.6363648    284904.75 
  111000    2.4861709 0.0021805956     3.636432    284904.75 
  112000    2.4810983 0.0021969235    3.6367188    284904.75 
  113000    2.4746234 0.0022861374     3.636722    284904.75 
  114000    2.4715639 0.0021773219    3.6367196    284904.75 
  115000    2.4810237 0.0021930213    3.6517266    284904.75 
  116000    2.4826545 0.0021830141    3.6517428    284904.75 
  117000    2.4728734 0.0021727915    3.6373321    284904.75 
  118000    2.4807776 0.0022163596    3.6523413    284904.75 
  119000    2.4785925 0.0021969434    3.6523415    284904.75 
  120000     2.475669 0.0022040355    3.6506228    284904.75 
  121000    2.4783927 0.0022019256    3.6507353    284904.75 
  122000    2.4748804 0.0021798251    3.6507357    284904.75 
  123000    2.4887261 0.0022186514    3.6667077    284904.75 
  124000    2.4829131 0.0021887933    3.6667093    284904.75 
  125000    2.4778375 0.0021872856    3.6667079    284904.75 
  126000    2.4842669 0.0022171108    3.6667054    284904.75 
  127000    2.4774876  0.002208009    3.6667061    284904.75 
  128000    2.4753908 0.0021884834    3.6667072    284904.75 
  129000    2.4743957 0.0023225587    3.6848037    284904.75 
  130000    2.4799871  0.002221174     3.669781    284904.75 
  131000    2.4759289 0.0022088343      3.66978    284904.75 
  132000    2.4871204 0.0022034744    3.6697793    284904.75 
  133000    2.4779688 0.0021909473    3.6697792    284904.75 
  134000    2.4825645 0.0021915338    3.6697778    284904.75 
  135000    2.4779555 0.0022181653    3.6697792    284904.75 
  136000    2.4874602 0.0022028399    3.6697758    284904.75 
  137000    2.4782916 0.0021921626    3.6697751    284904.75 
  138000    2.4793706 0.0022034746    3.6697782    284904.75 
  139000    2.4875923 0.0022173825    3.6847847    284904.75 
  140000    2.4856304 0.0021957636    3.6847879    284904.75 
  141000    2.4810231 0.0022057808    3.6847869    284904.75 
  142000    2.4844842 0.0022326853     3.687577    284904.75 
  143000    2.4862451 0.0022153575     3.687583    284904.75 
  144000     2.482333 0.0022266217    3.6875833    284904.75 
  145000    2.4774833 0.0022908516    3.6875629    284904.75 
  146000    2.4880885 0.0022476145    3.6894348    284904.75 
  147000    2.4864842 0.0022422034     3.689499    284904.75 
  148000    2.4830181 0.0022170473    3.6895006    284904.75 
  149000    2.4810618 0.0022193351    3.6895008    284904.75 
  150000    2.4845432 0.0022425051    3.6895004    284904.75 
  151000    2.4806628 0.0022105044    3.6894983    284904.75 
  152000    2.4776402 0.0022021483     3.690981    284904.75 
  153000    2.4792989 0.0022603741    3.6909791    284904.75 
  154000    2.4806656 0.0022346483    3.6909812    284904.75 
  155000    2.4821534  0.002222359    3.6909778    284904.75 
  156000    2.4795862 0.0022173259    3.6909832    284904.75 
  157000    2.4820364 0.0022014948    3.6909822    284904.75 
  158000    2.4808887  0.002198271    3.6900211    284904.75 
  159000    2.4803568 0.0021953146    3.6900211    284904.75 
  160000    2.4821078  0.002197765    3.6900228    284904.75 
  161000    2.4852829 0.0022239261    3.6915455    284904.75 
  162000    2.4803414 0.0022041885    3.6915466    284904.75 
  163000     2.479439 0.0022070462    3.6889996    284904.75 
  164000     2.480047 0.0022388165    3.6890013    284904.75 
  165000    2.4796184 0.0021971718    3.6890669    284904.75 
  166000    2.4790727 0.0022110399    3.6908652    284904.75 
  167000    2.4849999 0.0022126343    3.6904329    284904.75 
  168000    2.4806875 0.0022003064    3.6904348    284904.75 
  169000    2.4862154 0.0022096471    3.6916502    284904.75 
  170000    2.4802893 0.0022117949    3.6916497    284904.75 
  171000    2.4809955 0.0022165838    3.6916512    284904.75 
  172000     2.486639  0.002223108    3.6926769    284904.75 
  173000    2.4782345 0.0022445925    3.6926808    284904.75 
  174000    2.4809506 0.0022095781    3.6937357    284904.75 
  175000    2.4814112 0.0022154331    3.6937367    284904.75 
  176000    2.4807947 0.0022035606    3.6937392    284904.75 
  177000    2.4768968 0.0022041797    3.6937407    284904.75 
  178000     2.477796 0.0022061512    3.6937821    284904.75 
  179000    2.4818326 0.0022112952    3.6945219    284904.75 
  180000    2.4819126 0.0022114034    3.6945228    284904.75 
  181000    2.4800631 0.0022114048    3.6945251    284904.75 
  182000    2.4788628    0.0022136    3.6945205    284904.75 
  183000    2.4783466 0.0022080308    3.6945214    284904.75 
  184000    2.4812753 0.0022279276     3.694426    284904.75 
  185000    2.4789522 0.0022115621    3.6944254    284904.75 
  186000      2.48089 0.0022710559    3.7095837    284904.75 
  187000    2.4757425 0.0022074683    3.6946044    284904.75 
  188000    2.4801192 0.0022203336     3.697009    284904.75 
  189000    2.4801397 0.0022062348    3.6971927    284904.75 
  190000     2.481441  0.002212412    3.6971897    284904.75 
  191000    2.4821061 0.0022065927    3.6971897    284904.75 
  192000    2.4795901 0.0022131917    3.6971886    284904.75 
  193000    2.4808958 0.0022141664    3.6980424    284904.75 
  194000    2.4819863 0.0022089003    3.6986668    284904.75 
  195000    2.4866941 0.0022222533    3.7136823    284904.75 
  196000    2.4882989 0.0022291087    3.7136818    284904.75 
  197000    2.4803077 0.0022075384    3.6987251    284904.75 
  198000    2.4786193 0.0022108254     3.699171    284904.75 
  199000    2.4807744 0.0022087642    3.6991706    284904.75 
  200000    2.4823057 0.0022111641    3.7014291    284904.75 
Loop time of 5.62448 on 1 procs for 200000 steps with 256 atoms

Pair  time (%) = 0.747044 (13.282)
Neigh time (%) = 3.50479 (62.3131)
Comm  time (%) = 0.303519 (5.3964)
Outpt time (%) = 0.0078938 (0.140347)
Other time (%) = 1.06123 (18.8681)

Nlocal:    256 ave 256 max 256 min
Histogram: 1 0 0 0 0 0 0 0 0 0
Nghost:    69 ave 69 max 69 min
Histogram: 1 0 0 0 0 0 0 0 0 0
Neighs:    12 ave 12 max 12 min
Histogram: 1 0 0 0 0 0 0 0 0 0

Total # of neighbors = 12
Ave neighs/atom = 0.046875
Neighbor list builds = 17900
Dangerous builds = 10290
#	run             	1000
	unfix 			1
	unfix 			2

#------------ NVE -----------------------------------------------------------------------------

	fix 			1 all nve
	timestep		${dt}
	timestep		0.0020000000000000000416
	thermo_style  		custom step temp press etotal vol
	thermo			1000
	run             	100000
Memory usage per processor = 2.23315 Mbytes
Step Temp Press TotEng Volume 
  200000    2.4823057 0.0022111641    3.7014291    284904.75 
  201000    2.4798644 0.0022140087    3.7014266    284904.75 
  202000    2.4783858  0.002214763    3.7014256    284904.75 
  203000    2.4780746 0.0022148988    3.7014254    284904.75 
  204000    2.4773569 0.0022170464    3.7014275    284904.75 
  205000    2.4802457 0.0022215456    3.7014278    284904.75 
  206000    2.4780966 0.0022150862    3.7014248    284904.75 
  207000    2.4811724 0.0022106059    3.7014242    284904.75 
  208000    2.4779068 0.0022155264    3.7014233    284904.75 
  209000    2.4776408 0.0022162092    3.7014234    284904.75 
  210000    2.4775677   0.00221622    3.7014234    284904.75 
  211000    2.4829649 0.0022325874    3.7014246    284904.75 
  212000    2.4822992 0.0022093422    3.7014258    284904.75 
  213000     2.478328 0.0022147738    3.7014244    284904.75 
  214000    2.4784119 0.0022150082    3.7014243    284904.75 
  215000    2.4775179 0.0022162998    3.7014231    284904.75 
  216000    2.4781368 0.0022154246     3.701423    284904.75 
  217000    2.4773406 0.0022170624    3.7014206    284904.75 
  218000     2.479296 0.0022131101    3.7014205    284904.75 
  219000    2.4775257 0.0022162817    3.7014177    284904.75 
  220000     2.480306 0.0022259564    3.7014176    284904.75 
  221000    2.4789954 0.0022423262    3.7014151    284904.75 
  222000    2.4777826 0.0022157345     3.701422    284904.75 
  223000    2.4855445 0.0022112039    3.7014237    284904.75 
  224000     2.480759 0.0022179437    3.7014221    284904.75 
  225000    2.4807166 0.0022130692    3.7014222    284904.75 
  226000    2.4780995 0.0022153731    3.7014235    284904.75 
  227000    2.4813148 0.0022101741    3.7014231    284904.75 
  228000    2.4843027 0.0022380172    3.7014224    284904.75 
  229000    2.4814553 0.0022213361    3.7014225    284904.75 
  230000    2.4787284 0.0022142037    3.7014219    284904.75 
  231000    2.4802304 0.0022118479    3.7014222    284904.75 
  232000    2.4840891 0.0022250708    3.7014206    284904.75 
  233000    2.4792623 0.0022133824     3.701424    284904.75 
  234000    2.4793955 0.0022356407    3.7014241    284904.75 
  235000     2.480605 0.0022122411    3.7014232    284904.75 
  236000    2.4815269 0.0022135731    3.7014252    284904.75 
  237000    2.4817752 0.0022120267    3.7014268    284904.75 
  238000    2.4799145 0.0022146898    3.7014316    284904.75 
  239000    2.4797908 0.0022128321    3.7014296    284904.75 
  240000    2.4810123 0.0022116643    3.7014287    284904.75 
  241000     2.478206 0.0022154399    3.7014302    284904.75 
  242000    2.4784743 0.0022146195    3.7014308    284904.75 
  243000    2.4882163 0.0022283841    3.7014305    284904.75 
  244000    2.4817909 0.0022092271    3.7014321    284904.75 
  245000    2.4786692 0.0022141834    3.7014318    284904.75 
  246000    2.4778406  0.002215655    3.7014324    284904.75 
  247000    2.4808727  0.002212256    3.7014362    284904.75 
  248000    2.4782301 0.0022150409    3.7014387    284904.75 
  249000     2.480833 0.0022128328    3.7014384    284904.75 
  250000    2.4779944 0.0022155313    3.7014366    284904.75 
  251000    2.4777495 0.0022160464    3.7014379    284904.75 
  252000    2.4763779 0.0022631908    3.7014411    284904.75 
  253000    2.4838045 0.0022116196    3.7014392    284904.75 
  254000    2.4833884 0.0022148162    3.7014424    284904.75 
  255000    2.4802917 0.0022123677     3.701443    284904.75 
  256000    2.4788125 0.0022140416    3.7014407    284904.75 
  257000    2.4833703 0.0022081638    3.7014409    284904.75 
  258000    2.4801962 0.0022122739    3.7014403    284904.75 
  259000    2.4827243 0.0022148238    3.7014403    284904.75 
  260000    2.4786516 0.0022358909    3.7014408    284904.75 
  261000    2.4796104  0.002213287    3.7014376    284904.75 
  262000    2.4791614 0.0022626871     3.701443    284904.75 
  263000    2.4809586 0.0022117286    3.7014394    284904.75 
  264000    2.4775936 0.0022162003    3.7014386    284904.75 
  265000    2.4838046 0.0022074679     3.701441    284904.75 
  266000    2.4804359 0.0022232406    3.7014424    284904.75 
  267000    2.4735295  0.002296957    3.7014445    284904.75 
  268000    2.4809683 0.0022239094    3.7014399    284904.75 
  269000    2.4803319 0.0022124434    3.7014407    284904.75 
  270000    2.4777807 0.0022157693    3.7014421    284904.75 
  271000    2.4788799 0.0022144174    3.7014433    284904.75 
  272000    2.4796284 0.0022130867    3.7014462    284904.75 
  273000    2.4777429 0.0022160716    3.7014463    284904.75 
  274000      2.48023 0.0022164506    3.7014494    284904.75 
  275000     2.477545 0.0022165288    3.7014489    284904.75 
  276000    2.4782443 0.0022152077    3.7014498    284904.75 
  277000    2.4810421 0.0022116544    3.7014505    284904.75 
  278000    2.4776625 0.0022158702    3.7014503    284904.75 
  279000    2.4810138 0.0022162034    3.7014538    284904.75 
  280000    2.4783198 0.0022149496    3.7014552    284904.75 
  281000    2.4815843 0.0022125506    3.7014554    284904.75 
  282000    2.4791315 0.0022137755    3.7014521    284904.75 
  283000    2.4857385 0.0022208469     3.701453    284904.75 
  284000     2.479357 0.0022131125    3.7014524    284904.75 
  285000    2.4797924 0.0022133027    3.7014518    284904.75 
  286000    2.4827358 0.0022144642     3.701448    284904.75 
  287000    2.4788316 0.0022146856     3.701449    284904.75 
  288000    2.4813545  0.002219033    3.7014494    284904.75 
  289000    2.4782696 0.0022150998    3.7014483    284904.75 
  290000    2.4777852 0.0022157765    3.7014477    284904.75 
  291000    2.4807432 0.0022106437    3.7014492    284904.75 
  292000    2.4800626 0.0022128708     3.701449    284904.75 
  293000    2.4774698 0.0022165459    3.7014498    284904.75 
  294000    2.4741418 0.0022786774    3.7014505    284904.75 
  295000    2.4827981 0.0022162351    3.7014505    284904.75 
  296000    2.4801473 0.0022350259    3.7014499    284904.75 
  297000    2.4823381 0.0022150466    3.7014489    284904.75 
  298000    2.4781138 0.0022156261    3.7014467    284904.75 
  299000    2.4781207 0.0022155536    3.7014442    284904.75 
  300000    2.4771273  0.002278429    3.7014443    284904.75 
Loop time of 2.07296 on 1 procs for 100000 steps with 256 atoms

Pair  time (%) = 0.154957 (7.47514)
Neigh time (%) = 1.33938 (64.6117)
Comm  time (%) = 0.129735 (6.25843)
Outpt time (%) = 0.00388646 (0.187483)
Other time (%) = 0.445009 (21.4673)

Nlocal:    256 ave 256 max 256 min
Histogram: 1 0 0 0 0 0 0 0 0 0
Nghost:    67 ave 67 max 67 min
Histogram: 1 0 0 0 0 0 0 0 0 0
Neighs:    16 ave 16 max 16 min
Histogram: 1 0 0 0 0 0 0 0 0 0

Total # of neighbors = 16
Ave neighs/atom = 0.0625
Neighbor list builds = 6990
Dangerous builds = 0
#	run             	10000
	unfix 			1

#------------ kappa -------------------------------------------------------------------------
log 	log_kappa_${iseed}.lammps
log 	log_kappa_6.lammps
