	reset_timestep  	0
	fix 			1 all nve
	compute   		myKE all ke/atom
	compute   		myPE all pe/atom
	compute   		myStress all stress/atom virial
	compute   		flux all heat/flux myKE myPE myStress
	variable  		Jx equal c_flux[1]/vol
	variable  		Jy equal c_flux[2]/vol
	variable  		Jz equal c_flux[3]/vol
	fix       		JJ all ave/correlate $s $p $d c_flux[1] c_flux[2] c_flux[3] type auto file J0Jt_${iseed}.dat ave running
	fix       		JJ all ave/correlate 5 $p $d c_flux[1] c_flux[2] c_flux[3] type auto file J0Jt_${iseed}.dat ave running
	fix       		JJ all ave/correlate 5 200000 $d c_flux[1] c_flux[2] c_flux[3] type auto file J0Jt_${iseed}.dat ave running
	fix       		JJ all ave/correlate 5 200000 1000000 c_flux[1] c_flux[2] c_flux[3] type auto file J0Jt_${iseed}.dat ave running
	fix       		JJ all ave/correlate 5 200000 1000000 c_flux[1] c_flux[2] c_flux[3] type auto file J0Jt_2.dat ave running
#	fix       		JJ all ave/correlate $s $p $d c_flux[1] c_flux[2] c_flux[3] type auto ave running
#	dump			JJ all custom 1000000 J0Jt.dat f_JJ[3] f_JJ[4] f_JJ[5]
	compute 		myDis all msd
	thermo_style 		custom step temp press vol c_myDis[4] v_Jx v_Jy v_Jz
	thermo			1000
	timestep		${dt}
	timestep		0.0020000000000000000416
	run			2000000
Memory usage per processor = 3.5433 Mbytes
Step Temp Press Volume myDis[4] Jx Jy Jz 
       0    2.6202601  0.002386105    279726.26            0 -0.00013098325 0.00010565728 -0.00023732504 
    1000    2.6254093 0.0023966339    279726.26    31.163357 -0.00014021297 9.4253915e-05 -0.00023600612 
    2000    2.6182639 0.0024267869    279726.26     123.2775 -3.118047e-06 0.00027110185 -7.9118429e-05 
    3000    2.6272828 0.0023791011    279726.26    276.82595 -0.00016697833 0.00010129608 -8.8532692e-05 
    4000    2.6204166 0.0023860812    279726.26    492.56675 -0.00020294659 8.5950875e-05 -0.00012642352 
    5000    2.6224231 0.0023845742    279726.26    770.51799 -0.0001715352 9.9148002e-05 -0.00015964085 
    6000    2.6221907 0.0023845495    279726.26    1104.6224 -0.00011258864 9.0937689e-05 3.6447654e-05 
    7000    2.6252271 0.0023917135    279726.26    1492.3541 -9.3680553e-05 8.4413095e-06 6.5376438e-06 
    8000    2.6258793 0.0023826243    279726.26    1939.7391 -3.4689713e-05 -0.00016572165 0.00010391877 
    9000    2.6198682 0.0023867747    279726.26    2439.7357 3.7552398e-05 -7.871391e-05 0.0001240071 
   10000    2.6224855 0.0023826315    279726.26    2996.3496 2.2393339e-05 -5.7885805e-05 5.7329367e-05 
   11000    2.6240573 0.0023874566    279726.26    3606.6097 -6.0899685e-07 -7.6126601e-05 8.9738267e-05 
   12000    2.6231204 0.0023813271    279726.26    4278.5322 1.4522473e-05 -3.5693894e-05 7.847838e-05 
   13000    2.6241223 0.0023891013    279726.26    5009.7032 6.9862195e-05 -8.328604e-05 8.9393889e-05 
   14000    2.6209819 0.0023852842    279726.26    5792.0375 0.00013984838 -1.2724894e-05 0.00011403052 
   15000    2.6211337 0.0023846574    279726.26    6618.0165 0.00014364489 9.6325157e-06 8.6893333e-05 
   16000    2.6225991 0.0023837454    279726.26    7494.1671 0.00013331957 -3.2999573e-06 4.8437881e-05 
   17000    2.6284004 0.0023854159    279726.26    8427.6161 0.00015070228 5.4068984e-05 5.056758e-05 
   18000    2.6240601 0.0023816151    279726.26    9405.0575 0.00017687364 5.2629019e-05 0.00013093567 
   19000    2.6219323 0.0023832731    279726.26    10433.186 0.00022954481 6.4146985e-05 0.00018711411 
   20000    2.6197735  0.002387192    279726.26    11516.092 0.00021232974 6.8740435e-05 0.00017381299 
   21000    2.6248135  0.002386763    279726.26    12648.035 0.00011983681 -0.00012559293 9.2631043e-05 
   22000    2.6016125 0.0025264546    279726.26    13813.799 0.00044735834 -6.1938864e-05 0.00047674214 
   23000    2.6223985 0.0023832932    279726.26     15012.67 0.00022577362 -0.00012060903 0.00016621959 
   24000    2.6249784  0.002384798    279726.26    16267.438 0.00033671545 -0.00015016642 0.00016034327 
   25000     2.621592 0.0024080801    279726.26    17539.997 0.00010884907 -8.0213529e-05 0.00010721439 
   26000    2.6235876 0.0023817326    279726.26    18844.449 -1.2557046e-05 -0.00013576385 5.0319961e-05 
   27000     2.623796 0.0023999524    279726.26    20181.612 -5.3902428e-05 -6.1719429e-05 -0.00010921852 
   28000    2.6238917 0.0023944144    279726.26    21552.023 -0.00011474284 1.409691e-05 -0.0001284382 
   29000    2.6208629 0.0023850176    279726.26    22976.555 -9.8603333e-05 6.1318022e-06 -0.00013167367 
   30000     2.621289 0.0023841794    279726.26    24452.302 -2.8008313e-05 4.9437423e-05 -0.0001090527 
   31000    2.6277278 0.0023772402    279726.26    25972.162 -0.00012361532 6.5320207e-05 -0.0001760727 
   32000    2.6217522 0.0023836796    279726.26    27530.788 -0.00014302686 5.7433346e-05 -0.00011265294 
   33000    2.6217792  0.002400578    279726.26    29149.709 -0.00018606421 0.00014007827 -7.0920019e-05 
   34000    2.6204997 0.0023860922    279726.26    30816.422 -0.00020496274 9.3890244e-05 -1.7618423e-05 
   35000    2.6222119 0.0023879142    279726.26     32537.48 -0.00027931689 9.545622e-05 4.687095e-05 
   36000     2.624211 0.0023799246    279726.26    34304.633 -0.00040705977 7.0045361e-05 3.379155e-05 
   37000    2.6224192  0.002387104    279726.26    36106.843 -0.00044001797 2.4101679e-05 8.2708311e-05 
   38000    2.6232317 0.0023852818    279726.26    37963.366 -0.00046493952 3.4192174e-05 0.00013218867 
   39000    2.6254615 0.0024177601    279726.26    39880.309 -0.00050970047 0.00012027738 0.00012595467 
   40000    2.6182458 0.0024316155    279726.26    41811.883 -0.00063696256 0.00035076876 0.00012758186 
   41000    2.6199381  0.002387033    279726.26    43793.175 -0.00052809062 0.00026699401 0.00020273653 
   42000    2.6248074 0.0023803912    279726.26    45827.375 -0.00061331111 0.0001906146 0.00024320147 
   43000      2.62104 0.0023847347    279726.26    47870.915 -0.0006870525 0.00024423888 0.00019898386 
   44000    2.6199931 0.0023869364    279726.26    49954.958 -0.00069392768 0.00022003729 0.00018300193 
   45000    2.6217515  0.002383816    279726.26    52074.021 -0.00075671403 0.00028301281 0.00010444207 
   46000    2.6228483 0.0023917089    279726.26    54182.394 -0.00061769107 0.00033666531 1.9071778e-05 
   47000    2.6252453 0.0024157627    279726.26    56275.878 -0.00051167749 0.00035570228 -0.00023029015 
   48000    2.6223565 0.0023835256    279726.26    58362.989 -0.00049740244 0.00024562468 -0.0001207569 
   49000    2.6224954 0.0023839202    279726.26    60509.114 -0.00053232265 0.00025512711 -0.00015066424 
   50000    2.6243103 0.0023826077    279726.26    62704.491 -0.00047367059 0.00028777212 -7.8826583e-06 
   51000    2.6258076 0.0023873576    279726.26    64943.623 -0.00050861668 0.0002649765 -8.2100513e-06 
   52000    2.6227872 0.0023844474    279726.26     67221.86 -0.00048202188 0.00025361222 -1.2378716e-05 
   53000    2.6198889 0.0023871186    279726.26    69526.197 -0.0006003683 0.0002822805 -9.7019044e-05 
   54000    2.6206641 0.0023856657    279726.26    71874.151 -0.00057340547 0.00025419661 -0.00014343528 
   55000    2.6218376 0.0023841186    279726.26    74264.985 -0.00058067809 0.00022190689 -0.00020019388 
   56000    2.6200595 0.0023868343    279726.26    76654.324 -0.00044998246 0.0001569374 -8.3277101e-05 
   57000    2.6227836 0.0023832828    279726.26    79037.058 -0.00048305955 0.0001654397 -8.51606e-05 
   58000    2.6205388 0.0023861129    279726.26    81458.658 -0.00044830475 0.00014357994 -8.7581384e-05 
   59000    2.6214491 0.0023838977    279726.26    83946.033 -0.00048449418 0.00013708886 -4.9006999e-05 
   60000    2.6230372 0.0023838556    279726.26     86490.28 -0.00050974045 8.8394445e-05 -5.9409072e-05 
   61000    2.6215818 0.0023833175    279726.26     89072.86 -0.00048799405 -5.0475676e-05 -0.00012390239 
   62000    2.6211954 0.0023852761    279726.26    91684.538 -0.00051405719 -2.4572662e-05 -0.00011465112 
   63000    2.6285101  0.002414145    279726.26    94339.131 -0.00045541604 -5.9067005e-05 -8.9662975e-05 
   64000     2.623106 0.0023816043    279726.26    97034.691 -0.00053450262 -5.7661233e-05 -9.9853926e-05 
   65000    2.6226142 0.0023815608    279726.26    99770.386 -0.00051833965 -7.427289e-05 -0.00013181638 
   66000    2.6214375   0.00238487    279726.26    102563.55 -0.00051652006 -7.9594941e-05 -0.00014330138 
   67000    2.6223855 0.0023843669    279726.26    105412.35 -0.00060851661 -5.94664e-05 -0.00017812106 
   68000    2.6234691 0.0023825826    279726.26    108317.73 -0.00060426391 -4.6555805e-05 -0.000168107 
   69000    2.6204327 0.0023861653    279726.26    111209.39 -0.00058839881 -5.7827786e-06 -0.00018485462 
   70000    2.6245004 0.0023849333    279726.26     114090.7 -0.0006282586 -2.8915042e-05 -0.00022391541 
   71000    2.6217711 0.0023843308    279726.26    117029.48 -0.00061376041 -7.9346116e-05 -0.0002010595 
   72000     2.625561 0.0023846101    279726.26    119999.91 -0.00053215364 -0.00015704125 -0.00012703683 
   73000    2.6300888 0.0023883199    279726.26    122949.25 -0.00059442241 -0.00020961189 -0.00013095217 
   74000    2.6231696  0.002420867    279726.26    125876.59 -0.00053969753 -0.00018444334 -0.00015870749 
   75000    2.6200672 0.0023867881    279726.26    128845.73 -0.00049339954 -0.00021895841 -0.00012771769 
   76000    2.6224404  0.002383426    279726.26    131877.01 -0.00047868472 -0.00028822055 -0.00012343995 
   77000    2.6157079 0.0024471091    279726.26    134962.83 -0.00050661499 -0.00027306445 -9.5527765e-05 
   78000    2.6243601 0.0023856079    279726.26    138072.45 -0.00054629347 -0.00026873422 -8.919266e-05 
   79000     2.622021 0.0023832155    279726.26    141213.93 -0.00046230614 -0.00030567661 4.4060439e-05 
   80000    2.6278125 0.0023976636    279726.26    144397.52 -0.00043384778 -0.00039622019 0.00010267963 
   81000    2.6214069  0.002384743    279726.26    147524.18 -0.00046539982 -0.00038562453 0.00010592565 
   82000    2.6199825  0.002386466    279726.26    150706.86 -0.00044925624 -0.00032203892 0.00010097447 
   83000    2.6206693 0.0023855485    279726.26    153919.49 -0.00029840016 -0.00036079916 4.0723754e-05 
   84000    2.6201303 0.0023868018    279726.26    157134.91 -0.00024785512 -0.00047257012 -6.6452883e-05 
   85000    2.6223441 0.0023831225    279726.26    160367.97 -0.00030235961 -0.00046565127 -9.1352161e-05 
   86000    2.6221945 0.0023850852    279726.26    163561.73 -0.00026050764 -0.00037087326 -1.6340456e-05 
   87000    2.6241742 0.0023826159    279726.26    166767.08 -0.00026611634 -0.00031675402 5.1161347e-05 
   88000    2.6250618 0.0023839144    279726.26    170004.42 -0.00016756376 -0.00026733396 -4.0054857e-05 
   89000    2.6224293 0.0023871458    279726.26    173221.26 -0.00012537003 -0.00014691147 5.0312874e-05 
   90000    2.6222421 0.0023886713    279726.26    176487.19 -0.00011165743 -0.0001276762 3.8024088e-05 
   91000    2.6250262 0.0023833085    279726.26    179806.64 -0.00012541252 -0.0001009559 1.6021495e-05 
   92000      2.62355 0.0023863463    279726.26     183115.1 -0.00011139196 -0.00012676052 5.6848175e-06 
   93000    2.6300927 0.0023849218    279726.26    186482.62 -0.00015639899 -0.00013487525 -4.1347614e-05 
   94000    2.6255147 0.0023830531    279726.26    189820.62 -0.00018138913 -0.00010165021 -7.4784289e-05 
   95000    2.6244745 0.0023848916    279726.26    193169.73 -0.00015558277 -0.00013936016 0.00012349312 
   96000    2.6309022 0.0023842136    279726.26    196494.14 -0.000113077 -0.00015649314 0.00014972565 
   97000    2.6282291 0.0024103976    279726.26    199797.05 -5.3307105e-06 -0.00027424576 0.00016604406 
   98000    2.6277662 0.0023857108    279726.26    203101.52 -0.00011057533 -0.00025124104 0.00020481013 
   99000    2.6223296 0.0023887367    279726.26    206415.49 -0.00012918428 -0.00025291602 0.00020233981 
  100000    2.6235006 0.0023853018    279726.26    209750.14 -0.00013567436 -0.00021643743 0.00020551427 
  101000      2.62245 0.0023876607    279726.26    213138.57 -0.00013514344 -0.00018690385 0.00023638185 
  102000    2.6263724 0.0023913215    279726.26    216551.01 -0.00015494379 -0.00019321528 0.00014870876 
  103000    2.6275155 0.0023788758    279726.26    219997.19 -0.00017740858 -0.00022232914 9.7635231e-05 
  104000    2.6309984 0.0023949665    279726.26    223491.57 -8.1145774e-05 -0.0002693627 0.00011071284 
  105000    2.6256247 0.0023847875    279726.26    227034.34 -9.9926948e-05 -0.00029554236 0.00010276325 
  106000    2.6261735 0.0023899908    279726.26    230620.64 -2.6042088e-05 -0.00026127177 0.00012467876 
  107000    2.6253577 0.0023822547    279726.26    234273.89 -5.8010507e-06 -0.00025482942 0.00011164804 
  108000    2.6228814 0.0023870735    279726.26    237918.33 1.6013539e-05 -0.00028647562 0.00015812304 
  109000    2.6288377 0.0023823757    279726.26    241558.55 3.8346829e-05 -0.00026293384 0.00013022879 
  110000    2.6222146 0.0023873933    279726.26    245200.49 1.910368e-05 -0.00032120631 0.00014376889 
  111000     2.623784 0.0023851449    279726.26    248798.21 4.1942668e-05 -0.00016571159 0.00013807657 
  112000    2.6231293  0.002385153    279726.26     252383.9 5.1857884e-05 -0.00012735596 0.00010987903 
  113000    2.6228612 0.0023874678    279726.26    256036.45 5.4870505e-05 -0.00013521337 0.00015845915 
  114000    2.6278192  0.002388832    279726.26     259715.6 4.3587223e-05 -0.00018341021 0.00020827443 
  115000    2.6249483 0.0023845092    279726.26    263405.86 -1.666239e-05 -0.00023318117 0.00023276973 
  116000    2.6231782 0.0023863073    279726.26    267090.16 -5.4795229e-05 -0.00017530521 0.00016241946 
  117000    2.6266862 0.0023874976    279726.26    270771.71 -7.6498814e-05 -0.00014529001 0.00016064671 
  118000    2.6222442 0.0023886275    279726.26    274460.18 -8.9657936e-05 -0.000118795 0.00020090037 
  119000    2.6255142 0.0023822332    279726.26    278176.99 -0.0001309012 -6.6325073e-05 0.00025071876 
  120000    2.6265603 0.0023833675    279726.26    281918.35 -8.6726952e-05 -9.2887308e-05 0.00025113343 
  121000    2.6232386 0.0023849796    279726.26    285652.74 -1.1201618e-05 -0.00012425063 0.00037791648 
  122000    2.6293516 0.0023847448    279726.26    289375.78 4.9276864e-05 -0.00013871211 0.00040324413 
  123000    2.6267952 0.0023839239    279726.26     293084.3 0.00020055552 -0.00011569176 0.00041556107 
  124000    2.6246879 0.0024016311    279726.26    296805.22 0.00020300819 -0.00018427419 0.00041149985 
  125000    2.6260435 0.0023864125    279726.26    300569.78 0.0001896269 -0.0001536013 0.00040003395 
  126000    2.6222686   0.00238543    279726.26    304384.29 0.00010552701 -0.00016637156 0.00040548355 
  127000    2.6267868 0.0023890852    279726.26    308257.25 7.0901537e-05 -0.00017129753 0.00043675095 
  128000    2.6261972 0.0023913323    279726.26    312180.98 5.3909863e-05 -8.9490645e-05 0.00036958617 
  129000    2.6257396 0.0023859086    279726.26    316139.19 -6.6560474e-06 -0.00018614457 0.00035805982 
  130000    2.6219354 0.0023859527    279726.26    320145.17 -1.3471357e-05 -0.00018309462 0.00034020931 
  131000    2.6232147 0.0024116125    279726.26     324178.2 -0.00010747099 -0.00036708489 0.00034983319 
  132000    2.6236686  0.002387733    279726.26    328208.67 -0.00020060313 -0.00026217021 0.00023425136 
  133000     2.625751 0.0023877689    279726.26    332266.35 -0.00017715651 -0.00026248696 0.00025450759 
  134000    2.6245938 0.0023838656    279726.26    336373.63 -0.00021119747 -0.00030158378 0.00028160956 
  135000    2.6247271 0.0023878708    279726.26    340491.91 -0.00026657602 -0.00031423703 0.0002127138 
  136000    2.6233806 0.0023829902    279726.26    344609.05 -0.00020199186 -0.00034424597 0.00025319767 
  137000    2.6238073 0.0023872731    279726.26    348755.57 -0.00021012348 -0.00037036032 0.0002112877 
  138000    2.6248806 0.0023905015    279726.26    352934.22 -0.00019460194 -0.00034229889 0.0002333144 
  139000    2.6249162 0.0024079319    279726.26    357148.56 -0.00012808235 -0.00034938423 0.00013812445 
  140000    2.6250948 0.0023819734    279726.26    361367.73 -0.000187173 -0.00039913703 0.00011080668 
  141000    2.6298742 0.0023991839    279726.26    365610.84 -0.00021352225 -0.00038421325 0.00013581656 
  142000    2.6230995 0.0024737103    279726.26    369891.65 -0.00033505731 -0.00074233049 0.00028405416 
  143000    2.6261071 0.0023941108    279726.26    374071.38 -0.00032300784 -0.00036977882 0.00010484809 
  144000    2.6293443 0.0023842366    279726.26    378218.65 -0.00031213999 -0.0003556745 6.7436902e-05 
  145000    2.6285156 0.0023823569    279726.26    382395.67 -0.00042858027 -0.0002751901 0.0001024584 
  146000    2.6248472  0.002379883    279726.26    386632.35 -0.00042298318 -0.00024658149 0.00010915886 
  147000    2.6221486 0.0023852641    279726.26    390882.95 -0.0004180787 -0.00020198252 0.00017482642 
  148000    2.6257842 0.0023829134    279726.26    395156.48 -0.00041630884 -0.00028295808 0.00023192927 
  149000    2.6248827  0.002380504    279726.26    399434.78 -0.00048907087 -0.00034004891 7.6719078e-05 
  150000    2.6226489 0.0023835803    279726.26    403765.12 -0.00047716543 -0.00034938107 6.7540214e-05 
  151000    2.6227211 0.0023891369    279726.26    408137.84 -0.00047100301 -0.00042269543 8.8100349e-05 
  152000    2.6240198 0.0023990923    279726.26    412507.14 -0.00044797307 -0.00041421322 6.4816256e-05 
  153000    2.6221812 0.0023840315    279726.26    416794.34 -0.00039273963 -0.00039694139 1.8742974e-05 
  154000    2.6225851 0.0023893208    279726.26    421121.41 -0.00040632565 -0.00037989871 6.8819051e-05 
  155000    2.6259548 0.0023840815    279726.26    425534.76 -0.00038692196 -0.00037099588 6.6703176e-05 
  156000    2.6239146 0.0023816898    279726.26    429987.83 -0.00034435978 -0.00039084234 9.0672908e-05 
  157000    2.6256514 0.0023940579    279726.26     434452.4 -0.00037057611 -0.00037081232 8.8661464e-05 
  158000    2.6240442  0.002380306    279726.26    438933.83 -0.00036986779 -0.00039778519 6.1353705e-05 
  159000     2.622045 0.0024176919    279726.26    443481.99 -0.00047690235 -0.00042802206 9.4223583e-05 
  160000     2.623757 0.0023871906    279726.26    448086.07 -0.00047101399 -0.00037119133 0.00010974862 
  161000    2.6258869 0.0023818473    279726.26    452704.73 -0.00045509261 -0.00046275185 0.00023622831 
  162000     2.624748 0.0023829303    279726.26    457335.77 -0.0004633684 -0.00037387549 0.00024162256 
  163000    2.6241146 0.0023850408    279726.26    462041.59 -0.00039951451 -0.00043053135 0.00019872839 
  164000    2.6240342 0.0024235681    279726.26    466800.95 -0.00040940621 -0.00042894143 0.00021434626 
  165000     2.622532 0.0023837326    279726.26    471562.55 -0.00039668247 -0.00041711449 0.00014775626 
  166000    2.6255349 0.0023988406    279726.26    476387.19 -0.0003631694 -0.00038929473 0.00012498828 
  167000    2.6232416  0.002423312    279726.26     481127.6 -0.00037443575 -0.00026682724 0.00017364569 
  168000     2.625193 0.0023893316    279726.26    485791.86 -0.00045385496 -0.00033109891 0.00028551603 
  169000    2.6215066 0.0023851703    279726.26    490471.36 -0.00048112909 -0.0003052925 0.0002136984 
  170000      2.62204 0.0023857839    279726.26    495198.68 -0.00049549426 -0.00030376866 0.00023206339 
  171000    2.6216041  0.002385741    279726.26    499996.84 -0.00051617923 -0.00028740005 0.00024286309 
  172000    2.6262025 0.0023896167    279726.26    504826.08 -0.00055077439 -0.00030906624 0.0002264263 
  173000    2.6278791 0.0023799719    279726.26     509691.6 -0.00063391448 -0.00029798618 0.0002781193 
  174000    2.6219167 0.0023840128    279726.26    514531.46 -0.00068833407 -0.00022536696 0.00019567196 
  175000     2.625981 0.0023843955    279726.26    519405.92 -0.00070153708 -0.00022929014 0.00022237281 
  176000    2.6239458 0.0023806842    279726.26    524343.97 -0.00081851446 -0.00034445379 0.00023217651 
  177000    2.6261122 0.0024022514    279726.26    529332.28 -0.00084300665 -0.0003012434 0.00023305415 
  178000    2.6203461 0.0024554759    279726.26    534272.54 -0.00098047762 -0.00019140941 2.2917146e-05 
  179000     2.621965 0.0023846736    279726.26    539203.72 -0.00068009528 -0.00029087181 6.7530582e-05 
  180000    2.6250011 0.0023839381    279726.26     544175.5 -0.00068524447 -0.00033389501 0.00013027469 
  181000     2.628003 0.0023781796    279726.26    549139.59 -0.00062498581 -0.00036375154 8.5032776e-05 
  182000    2.6249564 0.0023809166    279726.26     553978.1 -0.00063925296 -0.00035964073 8.7108473e-05 
  183000    2.6278464 0.0023821099    279726.26    558870.34 -0.00063095174 -0.00039945386 0.00011414368 
  184000    2.6233676 0.0024028887    279726.26    563768.51 -0.00049952796 -0.00039022482 5.0718902e-05 
  185000     2.624299 0.0023812022    279726.26    568658.91 -0.00049799465 -0.00041731289 2.7235141e-05 
  186000    2.6222644 0.0023870169    279726.26    573609.68 -0.00054979959 -0.00039768535 -1.065881e-05 
  187000     2.629153 0.0023805362    279726.26    578589.67 -0.00053436709 -0.00035169177 -7.6070598e-06 
  188000    2.6283143  0.002377916    279726.26    583494.04 -0.00068174788 -0.00038930411 8.1131144e-05 
  189000    2.6234598 0.0023822541    279726.26    588274.44 -0.00038925689 -0.00043643397 0.00015795426 
  190000     2.623651 0.0023793704    279726.26     592956.3 -0.00050393124 -0.00041054924 0.00012543575 
  191000    2.6252191 0.0023915938    279726.26    597631.16 -0.00043596149 -0.00041423978 0.00011234647 
  192000    2.6226777 0.0023829003    279726.26    602179.93 -0.0002799737 -0.00032021399 5.1494431e-05 
  193000    2.6199334 0.0023869126    279726.26    606704.31 -0.00030859589 -0.00038829189 1.1868498e-05 
  194000    2.6226421 0.0023823663    279726.26    611281.04 -0.00035377098 -0.00041453032 -4.505045e-06 
  195000    2.6225854 0.0023824831    279726.26    615897.73 -0.00033553169 -0.00035831158 -4.4698398e-05 
  196000    2.6229845 0.0023841065    279726.26    620543.07 -0.00033431221 -0.00038352895 -8.8726894e-05 
  197000    2.6257799 0.0023816224    279726.26    625213.77 -0.00037063062 -0.00041253669 -7.4383119e-05 
  198000    2.6215936 0.0023846096    279726.26     629757.8 -0.00035125822 -0.0003424641 -0.00015559046 
  199000    2.6217559 0.0023835401    279726.26    634312.63 -0.000343155 -0.00032657139 -9.8237558e-05 
  200000    2.6257686 0.0023850213    279726.26    638898.42 -0.00036478082 -0.00034073483 -9.7717083e-05 
  201000    2.6218356 0.0023837238    279726.26    643519.15 -0.00034520845 -0.00030631023 -0.00014508931 
  202000    2.6210848 0.0023852035    279726.26    648252.61 -0.00044004888 -0.00030608271 -2.4535055e-05 
  203000    2.6216608 0.0023840658    279726.26    653082.15 -0.00040868725 -0.00037911072 -2.8834628e-05 
  204000    2.6200101  0.002387006    279726.26    657968.19 -0.00041084019 -0.00039903531 -3.8785357e-05 
  205000    2.6218148 0.0023846396    279726.26    662910.55 -0.0004029909 -0.00040472617 -3.1536396e-05 
  206000    2.6252588 0.0023835845    279726.26    667862.88 -0.00031488022 -0.00025386511 -4.9919455e-05 
  207000    2.6246433 0.0023820413    279726.26    672723.51 -0.00031995679 -0.00032374383 3.6708901e-05 
  208000    2.6222633 0.0023828906    279726.26    677495.38 -0.00024465219 -0.00033825932 1.0838304e-05 
  209000    2.6228338 0.0024056911    279726.26    682278.62 -0.00010590674 -0.00010096167 3.0830399e-05 
  210000    2.6219622  0.002384372    279726.26     686868.1 -1.7444409e-05 1.2294065e-05 -3.6446841e-05 
  211000    2.6204841 0.0024145864    279726.26    691433.32 -0.00016948097 0.00022785272 2.3831264e-05 
  212000    2.6223518  0.002383476    279726.26    696074.29 -0.00013199935 0.0001079203 2.8358805e-06 
  213000    2.6246383 0.0023791689    279726.26    700670.94 -7.4754367e-05 9.4908517e-05 5.8235245e-05 
  214000    2.6133192 0.0024707587    279726.26    705256.26 -3.0355516e-05 4.697307e-05 9.2879135e-05 
  215000    2.6206997 0.0023855441    279726.26    709820.01 -1.519088e-05 6.005575e-05 -9.459531e-05 
  216000    2.6233799 0.0023830686    279726.26    714383.95 -1.7796618e-05 5.8821523e-05 -9.8345919e-05 
  217000    2.6203488 0.0023863428    279726.26    718879.96 -2.045363e-05 1.8365654e-05 -0.00010018137 
  218000    2.6198124 0.0023871091    279726.26    723440.34 -2.6707826e-05 1.4605836e-05 -0.00010889544 
  219000    2.6224515 0.0023843468    279726.26    728017.17 -1.9809331e-05 4.3756401e-05 -9.9480202e-05 
  220000    2.6248484 0.0023851047    279726.26     732605.2 2.3088832e-05 8.4374909e-05 3.7345446e-05 
  221000    2.6220866 0.0024079603    279726.26    737213.33 -2.0017099e-05 3.3288272e-05 -6.013862e-05 
  222000    2.6226617 0.0023883977    279726.26    741695.13 3.9845361e-05 1.2303936e-05 -7.6409061e-05 
  223000    2.6213827 0.0024096399    279726.26    746032.67 1.5184695e-05 0.00012821078 -7.6673143e-05 
  224000    2.6234881 0.0023906125    279726.26     750413.2 1.9104747e-05 5.3445674e-06 -9.8369399e-05 
  225000    2.6232032 0.0023898326    279726.26    754814.68 -2.349867e-05 2.4688301e-05 -0.00017604368 
  226000    2.6290638 0.0023845516    279726.26    759262.02 -0.00016159206 -4.8856352e-05 -0.00019954575 
  227000    2.6201869 0.0023863569    279726.26    763587.59 -0.00022644507 -0.00010209186 -0.00019994575 
  228000     2.625084 0.0023797926    279726.26    767926.87 -0.00029599044 -3.8169027e-05 -0.00025886193 
  229000    2.6214748 0.0023857938    279726.26     772252.1 -0.00033483263 -2.8416273e-05 -0.00024713648 
  230000    2.6284926  0.002378373    279726.26    776505.54 -0.00038697337 -8.4642376e-06 -0.00028403964 
  231000    2.6257503 0.0023778983    279726.26    780751.59 -0.00038038678 -0.00011694882 -0.00038050174 
  232000    2.6233482 0.0023806324    279726.26    784924.33 -0.00046279459 -0.00013922686 -0.0002862346 
  233000    2.6113512 0.0024743695    279726.26    789066.38 -0.00012146888 7.0005313e-05 -0.00021881079 
  234000    2.6218058 0.0023836758    279726.26    793150.26 -0.00037434296 -1.9661328e-05 -0.00025222136 
  235000     2.623091 0.0023840884    279726.26    797269.32 -0.00035900042 -5.246657e-05 -0.00029224517 
  236000     2.621566 0.0024249845    279726.26    801402.33 -0.00040618979 4.9117135e-05 -0.00013877455 
  237000    2.6225812 0.0023973332    279726.26    805461.21 -0.00038157427 4.3273369e-05 -0.00028931269 
  238000    2.6230265  0.002393059    279726.26    809574.45 -0.00046760746 -0.00016552498 -0.00019488957 
  239000    2.6197245 0.0023874834    279726.26     813707.5 -0.00047297567 -0.00024387065 -0.00018699627 
  240000    2.6236143 0.0023822837    279726.26    817831.78 -0.0004879444 -0.00023428564 -0.00028839234 
  241000    2.6234533 0.0023955311    279726.26    821955.51 -0.00049110497 -0.0001217726 -0.00028710878 
  242000    2.6218985 0.0023839645    279726.26    826132.94 -0.0005626497 -0.00020464286 -0.00025926602 
  243000    2.6208839 0.0023851514    279726.26    830357.23 -0.00055242632 -0.00019519636 -0.00025855691 
  244000    2.6267824 0.0023916358    279726.26    834641.23 -0.00051790724 -0.0001589184 -0.00026180351 
  245000    2.6247602 0.0023845481    279726.26    838906.72 -0.0005216909 -8.9513081e-05 -0.00031311087 
  246000    2.6236622  0.002394558    279726.26     843109.4 -0.00052090109 -0.00010667223 -0.0001682364 
  247000    2.6228191 0.0023833467    279726.26       847310 -0.00055061672 -8.926395e-05 -0.00014805476 
  248000    2.6222504 0.0023829844    279726.26    851535.59 -0.00049111047 -6.897263e-05 -0.00021171135 
  249000    2.6224711 0.0023827479    279726.26     855790.3 -0.0005680855 3.7173191e-05 -0.00031325155 
  250000    2.6219831 0.0023841132    279726.26    860097.59 -0.00063086054 -2.5885859e-05 -0.00026699427 
  251000    2.6219452 0.0023843069    279726.26    864437.93 -0.00065139707 -1.8772069e-05 -0.00027736223 
  252000      2.62177 0.0023848722    279726.26    868851.16 -0.00061679888 -4.0303501e-05 -0.00022654581 
  253000    2.6225342 0.0023827203    279726.26    873353.91 -0.00059497407 -5.6670216e-05 -0.00020621426 
  254000    2.6208481  0.002385125    279726.26    877889.15 -0.00057334699 -0.00011342549 -0.00023733364 
  255000    2.6265153 0.0023778696    279726.26    882327.57 -0.00050847582 -0.00015780468 -0.00023301763 
  256000    2.6220205 0.0023834294    279726.26     886654.5 -0.0004799903 -0.00014139883 -0.00023883373 
  257000     2.620908 0.0023851013    279726.26    891021.84 -0.00045673371 -0.0001201924 -0.00021558541 
  258000    2.6208675 0.0023854825    279726.26    895408.06 -0.00045500264 -0.00014234816 -0.00019490138 
  259000    2.6207277 0.0023850952    279726.26    899852.41 -0.00045006226 -9.5430086e-05 -0.00021108262 
  260000    2.6218129  0.002405013    279726.26    904349.84 -0.00041865921 -7.1056965e-05 -0.0001145419 
  261000    2.6223606 0.0023829908    279726.26    908836.65 -0.00021295333 -0.00016133685 -0.00010697987 
  262000    2.6234621 0.0023827032    279726.26    913265.55 -0.00019144379 -0.00012050071 -4.4957565e-05 
  263000     2.629192  0.002392155    279726.26    917712.53 -0.00019606646 -0.00016787688 -4.0872531e-05 
  264000    2.6212665 0.0023853514    279726.26    922201.36 -0.00018041866 -0.00014638523 -5.1419814e-05 
  265000    2.6201436   0.00238667    279726.26    926738.97 -0.00018076068 -0.00011290012 -2.4395339e-05 
  266000    2.6214255 0.0023856585    279726.26    931286.25 -0.00019433521 -0.00018568255 8.3081525e-07 
  267000     2.621895  0.002383442    279726.26     935891.7 -7.1143652e-05 -0.00017746103 3.1819332e-05 
  268000    2.6229544 0.0023825027    279726.26    940590.13 -8.1469975e-05 -0.00014117437 -3.2211302e-05 
  269000    2.6243593 0.0024037516    279726.26    945298.92 6.4198164e-05 -0.00025476952 4.9833488e-05 
  270000    2.6219965 0.0023830156    279726.26    950017.72 -6.9732405e-05 -0.00017749574 -1.7746771e-05 
  271000    2.6219881 0.0024004359    279726.26    954803.01 -5.90012e-05 -0.00017182694 1.2369556e-05 
  272000     2.621347 0.0024380835    279726.26    959713.94 -0.00019906635 -0.00015990892 -0.00014354607 
  273000    2.6214152 0.0023848733    279726.26    964525.22 -0.00018769482 -9.3589438e-05 -0.00013549025 
  274000    2.6243021 0.0023832973    279726.26    969357.22 -0.00021041847 -7.2848741e-05 -0.00013098823 
  275000    2.6238206 0.0023839048    279726.26    974229.38 -0.00022181721 -4.5841346e-05 -9.5651573e-05 
  276000     2.620523 0.0023855245    279726.26    979143.22 -0.00021839243 -4.0789215e-05 -0.00013732915 
  277000    2.6236659 0.0023812508    279726.26    984102.56 -0.00036052168 4.0308477e-05 -4.8928417e-05 
  278000    2.6274342 0.0023841054    279726.26     989077.5 -0.00037889738 0.00011800351 -6.3711814e-05 
  279000     2.625216 0.0023826819    279726.26    994084.59 -0.00039256908 0.00016970726 -0.00010850529 
  280000    2.6209211 0.0023852352    279726.26    998978.31 -0.00037972738  0.000175165 -6.7112651e-05 
  281000    2.6224534 0.0023831099    279726.26    1003818.2 -0.00039644097 0.00011165173 5.5662293e-06 
  282000    2.6204655 0.0023859036    279726.26    1008585.3 -0.00039495374 0.00014900338 4.1904988e-06 
  283000    2.6249721 0.0023847009    279726.26    1013379.3 -0.00047284938 0.00012278243 4.921877e-05 
  284000    2.6216241 0.0023846712    279726.26    1018174.3 -0.00045389839 0.00013858672 4.141649e-06 
  285000    2.6238169 0.0024106818    279726.26    1022994.9 -0.00042217516 5.5514407e-05 -5.6837767e-05 
  286000    2.6216318 0.0023845466    279726.26    1027743.1 -0.00051110054 8.4398941e-05 -0.00021629423 
  287000    2.6198247 0.0023872022    279726.26    1032444.6 -0.00036276493 0.00032250782 -0.00013676445 
  288000    2.6226018 0.0023900891    279726.26    1037174.7 -0.00037437335 0.00028042999 -8.620889e-05 
  289000    2.6209417 0.0023849551    279726.26    1041951.6 -0.0004697243 0.00041415101 -2.5097596e-05 
  290000    2.6231461 0.0023825848    279726.26    1046801.6 -0.0004709241 0.00040646072 -7.6519531e-05 
  291000    2.6215155 0.0023844982    279726.26    1051691.2 -0.00043736018 0.0004070131 1.4198538e-05 
  292000    2.6205458 0.0023861773    279726.26    1056521.1 -0.0004805365 0.00040413154 6.2588271e-05 
  293000    2.6254742 0.0023796851    279726.26    1061355.2 -0.00060993178 0.00040447072 3.9321529e-05 
  294000    2.6265698 0.0024137573    279726.26    1066110.4 -0.00048395224 0.00027072478 0.00017724934 
  295000     2.619864 0.0023870164    279726.26    1070885.1 -0.00066509351 0.00033437567 6.7419087e-05 
  296000    2.6237377 0.0023811839    279726.26    1075708.9 -0.00066848148 0.00032271867 5.1355962e-05 
  297000    2.6258088 0.0023918363    279726.26    1080603.7 -0.00065592978 0.00024623056 1.4398233e-05 
  298000    2.6213419 0.0023846229    279726.26    1085442.4 -0.00068667176 0.00023423631 6.6855858e-05 
  299000    2.6205437 0.0023860773    279726.26    1090296.7 -0.00067065498 0.00022584757 5.3854479e-05 
  300000    2.6215381 0.0023837044    279726.26    1095225.3 -0.00069167963 0.00021856201 6.3798633e-05 
  301000    2.6168344 0.0024397463    279726.26    1100195.5 -0.00074913542 0.00027600129 5.1857437e-05 
  302000    2.6240209 0.0023911266    279726.26    1105176.9 -0.00070298593 0.00023605354 6.1145279e-05 
  303000    2.6247622  0.002382465    279726.26    1110238.6 -0.00064640137 0.00022143171 3.0715062e-05 
  304000     2.625583  0.002379416    279726.26    1115384.2 -0.00063627148 0.00021783404 0.00033126583 
  305000    2.6252228 0.0023891203    279726.26    1120482.2 -0.00062829269 0.00019875608 0.00046485991 
  306000    2.6230058 0.0023871257    279726.26    1125532.5 -0.00061365423 0.00015032969 0.00045382912 
  307000    2.6263302 0.0023927435    279726.26    1130552.9 -0.00059007772 0.00013302672 0.00044770763 
  308000    2.6209278 0.0023855613    279726.26    1135403.2 -0.00055767396 0.00022608107 0.00021173172 
  309000    2.6275016 0.0023867006    279726.26    1140303.3 -0.00048660129 0.00033270398 0.00021905237 
  310000    2.6198308 0.0023872092    279726.26    1145241.3 -0.00048705004 0.00032769098 0.0002192137 
  311000    2.6240554 0.0023841031    279726.26    1150255.1 -0.00050484348 0.00033469335 6.7142361e-05 
  312000    2.6239887 0.0023806777    279726.26    1155120.9 -0.00049912711 0.00028716623 8.7938982e-05 
  313000    2.6216402 0.0023838042    279726.26    1160009.7 -0.00053472285 0.00034077383 0.00010788785 
  314000    2.6201366 0.0023866865    279726.26      1164930 -0.00047996535 0.00031750424 0.00010411324 
  315000    2.6252262 0.0023796349    279726.26    1169843.4 -0.00048782433 0.00032760351 6.3309238e-05 
  316000    2.6200226  0.002387004    279726.26    1174798.4 -0.00029761025 0.00018241639 0.00011404377 
  317000    2.6265553 0.0023901265    279726.26    1179732.2 -0.00024257701 0.00022594094 1.2759474e-05 
  318000    2.6237029 0.0023936393    279726.26    1184637.2 -0.00018560858 0.00025791088 5.2402839e-05 
  319000    2.6210727 0.0023854247    279726.26      1189603 -0.00022233582 0.00019438958 5.7131027e-05 
  320000    2.6231335 0.0023825279    279726.26    1194548.2 -0.00014413852 7.3647495e-05 0.00022643581 
  321000     2.622161 0.0023846707    279726.26    1199367.4 -0.00010525803 -8.5145057e-07 0.00016357763 
  322000    2.6187844 0.0024448692    279726.26    1204272.1 -7.4317751e-05 0.00016941118 -3.0692284e-05 
  323000    2.6204829 0.0023864276    279726.26    1209264.1 -0.00015086328 -3.1614782e-05 8.4620674e-05 
  324000    2.6251016 0.0023820524    279726.26    1214287.5 -2.9413768e-05 -1.1977855e-05 9.4559216e-05 
  325000    2.6236499 0.0023888221    279726.26    1219273.4 -4.9324339e-05 -1.3766788e-08 0.00025531143 
  326000    2.6209291 0.0023850617    279726.26    1224212.7 -2.1180286e-06 -2.2877485e-05 0.00020506043 
  327000    2.6217771 0.0024026665    279726.26    1229191.2 -2.2466472e-05 -5.293238e-05 0.00015865434 
  328000     2.621147 0.0023846559    279726.26    1234103.1 -2.1557432e-06 2.8426215e-05 0.00022591256 
  329000    2.6264855 0.0023795688    279726.26    1238996.1 -0.00014623598 -3.8129286e-05 0.00018475432 
  330000    2.6217964 0.0023857767    279726.26    1243726.4 6.8235587e-06 -0.00018310724 0.00034090302 
  331000    2.6251266  0.002395109    279726.26    1248427.2 -5.5356521e-05 -0.00025371365 0.00031805146 
  332000    2.6219035 0.0023839856    279726.26    1253169.1 -0.00011881635 -0.00016111761 0.00028518236 
  333000    2.6222631 0.0023829402    279726.26    1257954.2 -0.0001290226 -0.00010456917 0.0002652614 
  334000    2.6199698 0.0023867569    279726.26    1262705.6 -0.00010907275 -0.00010422936 0.00024223792 
  335000    2.6201106 0.0023871442    279726.26      1267452 -0.00013080037 -1.3450842e-05 0.00023012899 
  336000    2.6214321 0.0023844378    279726.26    1272232.3 -0.00016391423 -5.4187428e-05 0.00026770158 
  337000     2.620234  0.002386298    279726.26    1276997.8 -0.00016951136 -1.8421115e-05 0.00020503221 
  338000     2.620969 0.0023854252    279726.26    1281676.9 -0.00021296518 1.842558e-06 0.00021338639 
  339000    2.6206155 0.0023855502    279726.26    1286336.3 -0.00018761227 -8.0279244e-06 0.00020285773 
  340000    2.6222856 0.0023842344    279726.26    1291046.7 -0.00013931229 -2.6281063e-06 0.00020553552 
  341000    2.6247498 0.0023817282    279726.26    1295815.9 -9.4054167e-05 5.9474689e-07 0.00020125157 
  342000    2.6233427 0.0023846178    279726.26    1300597.9 -3.4576443e-05 2.6856067e-05 0.00025283515 
  343000    2.6233542 0.0023837485    279726.26    1305299.9 -1.1575179e-05 2.355024e-05 0.00026382623 
  344000    2.6348098 0.0023782911    279726.26    1310068.7 -1.7926815e-05 -2.5195277e-06 0.00030280125 
  345000    2.6217849 0.0023838603    279726.26    1314791.5 5.554381e-05 0.00015009666 0.00034432398 
  346000     2.622778 0.0023890648    279726.26    1319527.1 8.5063577e-05 0.00012813697 0.0003703687 
  347000    2.6243266 0.0023806148    279726.26    1324242.9 4.2180868e-05 0.00020539259 0.00036508877 
  348000    2.6228498  0.002385484    279726.26    1328790.3 5.2390996e-05 0.00010080467 0.00048136859 
  349000    2.6214684 0.0023844214    279726.26      1333356 7.2197856e-05 9.268551e-05 0.00046610209 
  350000    2.6268964 0.0023849331    279726.26    1337941.8 2.0472551e-05 9.4063627e-05 0.00039644284 
  351000     2.623251 0.0023831769    279726.26    1342496.5 2.2741211e-05 9.7226524e-06 0.00034172259 
  352000    2.6228608 0.0023835363    279726.26      1347021 9.3116749e-06 1.6379819e-05 0.00022224502 
  353000    2.6198813 0.0023872914    279726.26    1351611.5 4.5083934e-05 1.9765455e-05 0.00029468077 
  354000    2.6230598 0.0023823016    279726.26    1356304.4 0.00010377634 8.3429992e-05 0.0003244371 
  355000     2.631799 0.0023906438    279726.26    1361039.5 7.3152128e-05 7.6125905e-05 0.00031528629 
  356000    2.6170694 0.0024626081    279726.26    1365650.3 9.9846178e-05 5.4628982e-05 0.00015616098 
  357000    2.6134985 0.0024587013    279726.26    1370348.4 8.125025e-05 0.00029563646 0.00017832705 
  358000    2.6258932 0.0023943218    279726.26    1375076.7 0.00021801172 0.00010728632 0.00028501468 
  359000     2.624563 0.0024064871    279726.26    1379809.1 0.00017176338 8.7455152e-05 0.00027049944 
  360000    2.6207132 0.0023852528    279726.26    1384482.1 8.3209021e-05 0.00010754028 0.00017526769 
  361000    2.6200494 0.0023866441    279726.26    1389136.1 0.00010063866 0.00015100242 0.00016367572 
  362000    2.6240659 0.0023867888    279726.26    1393819.4 4.2816797e-05 0.00012052697 0.00015524265 
  363000    2.6205172 0.0023856308    279726.26    1398565.4 2.7340321e-05  0.000115493 0.0001576912 
  364000    2.6227463  0.002389874    279726.26    1403389.6 -9.1485639e-05 0.00015423113 8.9450388e-05 
  365000    2.6214308 0.0023849762    279726.26      1408251 -6.1288841e-05 6.5719628e-05 6.8011523e-05 
  366000    2.6227378 0.0023856217    279726.26    1413150.4 -3.7018664e-05 9.108157e-05 8.3319169e-05 
  367000    2.6221241 0.0023833744    279726.26    1418111.9 -2.8602136e-05 0.00011234526 7.3598326e-05 
  368000      2.62039 0.0023863775    279726.26    1423030.5 6.0894202e-05 0.00011568355 2.3067712e-05 
  369000    2.6224897  0.002383192    279726.26    1427999.2 3.2665324e-05 0.00010729972 -1.7091647e-07 
  370000     2.627925 0.0023807362    279726.26    1432992.2 2.9441248e-05 3.7022522e-05 3.4821599e-05 
  371000    2.6251539 0.0024185668    279726.26    1437973.9 -1.2606224e-05 -5.578728e-05 5.5527549e-05 
  372000    2.6204857 0.0023856565    279726.26    1443007.5 -1.659583e-05 -5.294897e-05 3.712183e-05 
  373000    2.6254808  0.002402225    279726.26      1447996 -5.8782409e-05 6.6617359e-05 4.5008371e-06 
  374000     2.621387 0.0023842955    279726.26      1452865 4.3604975e-05 0.00012886538 3.6065625e-05 
  375000    2.6261874 0.0023981361    279726.26    1457340.7 7.2452491e-05 0.00015960099 2.5748461e-06 
  376000    2.6211765 0.0023847922    279726.26    1461753.5 3.0484081e-05 0.00016817582 1.213265e-05 
  377000    2.6247034 0.0023851588    279726.26      1466143 -6.554584e-06 0.00016044377 1.8453614e-06 
  378000     2.629408 0.0023897838    279726.26    1470622.7 5.5437606e-05 0.00016852472 1.2944066e-05 
  379000    2.6266136 0.0023875953    279726.26    1475150.6 6.7709139e-05 0.00013731219 2.5645026e-05 
  380000    2.6186634  0.002427319    279726.26    1479616.3 -6.1892287e-05 0.00028103313 -4.9016199e-05 
  381000     2.622829 0.0023821047    279726.26    1483900.5 -9.9990664e-05 0.00025699073 -1.4208315e-05 
  382000    2.6198716 0.0023865052    279726.26    1488049.1 -8.5073515e-05 0.00026497653 -1.7752708e-05 
  383000    2.6233257 0.0023920279    279726.26    1492250.9 -5.4146051e-05 0.00023811142 -3.3143689e-05 
  384000    2.6206499 0.0023855977    279726.26    1496339.3 -9.2146157e-05 0.00018379314 -4.8796161e-05 
  385000    2.6242966 0.0023829923    279726.26    1500437.1 -0.00010101564 0.0002310059 -9.6914873e-05 
  386000    2.6186976 0.0024502291    279726.26    1504575.5 0.00010815181 0.00041233956 -9.1493361e-05 
  387000    2.6215163 0.0024595823    279726.26    1508694.4 -7.5058622e-05 0.00040851195 -0.00029632608 
  388000    2.6220562 0.0023949536    279726.26    1512708.5 -0.00025922327 0.00043909923 -0.00016235686 
  389000    2.6227747 0.0023928894    279726.26    1516787.8 -0.00021238772 0.00044993721 -0.00015960557 
  390000    2.6204709 0.0024108414    279726.26    1520825.9 -0.00046221243 0.00029237193 1.9269647e-05 
  391000    2.6206808 0.0023856526    279726.26    1524880.8 -0.00042837002 0.00036579457 -0.00014162042 
  392000    2.6233966 0.0023854023    279726.26      1528943 -0.00047835083 0.00046559607 -0.00010296536 
  393000    2.6183656 0.0024432683    279726.26    1532901.8 -0.00042586966 0.00045207494 -0.00015559851 
  394000    2.6225363 0.0023828318    279726.26    1536790.3 -0.00034948166 0.0003750062 -2.4176545e-05 
  395000     2.621157 0.0023847867    279726.26    1540681.8 -0.00035040431 0.00046064018 6.0433999e-05 
  396000    2.6185792 0.0024302977    279726.26    1544570.5 -0.00033078534 0.00048742457 0.00010983941 
  397000    2.6219348 0.0023844557    279726.26      1548452 -0.00025159961 0.0006119125 0.00019906649 
  398000    2.6222489 0.0023862672    279726.26    1552358.3 -0.0002059824 0.00067409354 0.00023965569 
  399000    2.6242277  0.002387943    279726.26    1556288.6 -0.00019502477 0.00068495302 0.00019897021 
  400000    2.6212515 0.0023843086    279726.26    1560219.5 -7.5913221e-05 0.00067392613 0.00017479538 
  401000    2.6268263 0.0023949182    279726.26    1564141.3 0.00011356464 0.00087185644 0.00049789827 
  402000    2.6223014 0.0023843162    279726.26    1568166.5 6.0891491e-05 0.00090642077 0.0004898815 
  403000    2.6227555 0.0023823225    279726.26    1572271.7 2.9539252e-05 0.00086326933 0.0004237331 
  404000    2.6246035 0.0023899634    279726.26    1576360.5 -2.4508234e-05 0.0009397326 0.00038969058 
  405000    2.6207133 0.0023858446    279726.26    1580285.6 -0.00013980611 0.00098638033 0.00035162345 
  406000    2.6228379 0.0023932724    279726.26    1584171.4 -0.00021181234 0.00097373573 0.00047332044 
  407000    2.6221559 0.0023823627    279726.26    1587867.1 -8.2013378e-05 0.00098045538 0.00050131491 
  408000    2.6233774 0.0023830796    279726.26    1591319.2 -0.00017150319 0.0010949585 0.00045898755 
  409000    2.6249538 0.0023896851    279726.26    1594766.5 -0.00031501022 0.00098748018 0.00050831346 
  410000    2.6209933 0.0023849437    279726.26    1598250.1 -0.00032616183 0.00098283619 0.00045640134 
  411000    2.6205998 0.0024140063    279726.26    1601742.3 -0.00030818079 0.00094773323 0.00058153178 
  412000     2.620372 0.0023857918    279726.26    1605325.8 -0.00040507918 0.00092859675 0.00044121621 
  413000    2.6218409 0.0024015337    279726.26    1608986.5 -0.00037476457 0.00094393168 0.00042483893 
  414000    2.6228724 0.0023837066    279726.26    1612710.3 -0.00038824817 0.00093341106 0.00041064491 
  415000    2.6230966 0.0023888199    279726.26    1616520.1 -0.00039548083 0.00093269657 0.00043664938 
  416000    2.6201724   0.00238682    279726.26    1620394.4 -0.00047754544 0.00092919734 0.00040881801 
  417000    2.6218435 0.0023857594    279726.26    1624337.5 -0.00048032032 0.00093141346 0.00039312951 
  418000    2.6230313 0.0023844103    279726.26    1628398.3 -0.00050790704 0.00086884359 0.00038590294 
  419000    2.6236788  0.002388917    279726.26    1632528.3 -0.00039912187 0.00087129708 0.00039328815 
  420000    2.6231151 0.0023907425    279726.26      1636723 -0.00038994034 0.00084939257 0.00040092567 
  421000    2.6218193 0.0023830546    279726.26    1640904.5 -0.00053760753 0.00094415761 0.00037795996 
  422000    2.6209683 0.0023853276    279726.26    1645137.9 -0.00043299977 0.00085345671 0.00044463215 
  423000    2.6273291 0.0023876382    279726.26    1649372.9 -0.00050044339 0.00086797886 0.00053580283 
  424000     2.623463 0.0023813909    279726.26    1653579.3 -0.00051269508 0.0008724637 0.00054688381 
  425000    2.6235772 0.0023948105    279726.26    1657776.5 -0.00048178484 0.00082315441 0.00057199836 
  426000    2.6202174 0.0023863503    279726.26    1661920.7 -0.00042456707 0.00085309437 0.00053877195 
  427000    2.6069896 0.0025019881    279726.26      1666048 -0.00030859542 0.00098301499 0.00062535311 
  428000     2.622167  0.002383456    279726.26    1670153.3 -0.00031612637 0.00089476993 0.00038504074 
  429000    2.6210938 0.0023854144    279726.26    1674311.5 -0.00029553969 0.00093420366 0.00038890151 
  430000    2.6208054 0.0023852627    279726.26    1678484.3 -0.00024784288 0.00097441537 0.00041076695 
  431000     2.623087 0.0023879631    279726.26    1682621.8 -0.00023032333 0.0010944064 0.00032589012 
  432000    2.6240905 0.0023814956    279726.26    1686666.6 -0.00016968041 0.0010725239 0.00034222796 
  433000    2.6258775 0.0023957937    279726.26    1690760.4 -5.3183869e-05 0.0010883321 0.00032228597 
  434000     2.619809  0.002387529    279726.26    1694749.6 -5.9651429e-05 0.0011209014 0.00029103999 
  435000    2.6243913 0.0023858659    279726.26    1698757.1 -0.0001086877 0.0012171819 0.00027291319 
  436000    2.6207689 0.0023854536    279726.26    1702881.7 -7.7360951e-05 0.0012168286 0.00031094627 
  437000    2.6219511  0.002383839    279726.26    1707095.2 -0.00026901736  0.001343474 0.0004017066 
  438000    2.6222785 0.0023831761    279726.26    1711286.4 -0.00014792301  0.001298452 0.00046498637 
  439000    2.6206058 0.0023853367    279726.26    1715429.7 -0.00015279533 0.0012177837 0.00042501621 
  440000    2.6225014 0.0024478385    279726.26    1719463.1 -0.00021923569 0.0011708412 0.00041452916 
  441000     2.620268 0.0023866408    279726.26    1723522.8 -0.00020848652 0.0011577801 0.00041745979 
  442000         2.62 0.0023868475    279726.26    1727535.6 -0.00015051023  0.001126425 0.0004070372 
  443000    2.6216123 0.0023837651    279726.26    1731576.3 -8.8340936e-05  0.001165851 0.0004219832 
  444000    2.6229206 0.0023874717    279726.26    1735627.7 -7.7693481e-05 0.0011702038 0.00044128941 
  445000     2.622689 0.0024000144    279726.26      1739739 -0.0001258052 0.0010974968 0.00042892734 
  446000    2.6236123 0.0023888822    279726.26    1743867.6 -2.7256402e-05 0.0011892502 0.00049732691 
  447000    2.6215757 0.0023832944    279726.26    1747956.7 -0.00014791341 0.0012076768 0.00054328462 
  448000    2.6276101 0.0023928307    279726.26    1752083.5 -7.1210136e-05 0.0012314625 0.00063435999 
  449000    2.6209023 0.0023847458    279726.26    1756139.2 3.1285277e-05  0.001166743 0.00065255341 
  450000    2.6288319  0.002380001    279726.26    1760131.3 5.755748e-05 0.0011392621 0.00067157911 
  451000    2.6233108 0.0023819018    279726.26    1764100.6 2.4548204e-05 0.0011330762 0.00068124276 
  452000    2.6210314 0.0023850059    279726.26    1767988.2 2.114012e-05 0.0010730789 0.00064344817 
  453000    2.6212217 0.0023851009    279726.26    1771894.2 -2.0837641e-05 0.00098357651 0.00063236926 
  454000    2.6232431 0.0023910464    279726.26    1775806.5 7.9600764e-07 0.00091556463 0.00057750049 
  455000    2.6205183 0.0023858524    279726.26    1779714.9 -5.9257753e-06 0.0008845579 0.00058269335 
  456000    2.6201079 0.0023862893    279726.26    1783700.6 2.2223533e-05 0.00092185134 0.00049451456 
  457000    2.6255382 0.0023805913    279726.26      1787747 -4.8479692e-05 0.00078921134 0.00056007159 
  458000    2.6237363 0.0024082451    279726.26    1791768.9 -0.00010099224 0.00077529814 0.00058534961 
  459000    2.6208482 0.0023855905    279726.26    1795758.3 -9.4896039e-05 0.00077840133 0.00058357385 
  460000    2.6227473 0.0023859842    279726.26    1799823.4 -3.3624773e-05 0.0007955504 0.00056708811 
  461000    2.6199556 0.0023870167    279726.26    1803968.2 -9.4694859e-06 0.00085965241 0.00063066232 
  462000    2.6223879 0.0024236595    279726.26    1808179.3 -0.00010433386 0.00080167795 0.00068113635 
  463000    2.6214576 0.0023856809    279726.26    1812351.2 8.6403839e-06 0.0008209433 0.00069148933 
  464000    2.6226733  0.002384723    279726.26    1816487.7 2.0675502e-05 0.00082141931 0.00068914056 
  465000    2.6208917 0.0023854016    279726.26      1820633 -0.00012839995 0.0007464771 0.00068212323 
  466000    2.6223766 0.0023919824    279726.26    1824759.2 -9.4802068e-05 0.00071508853 0.00060519746 
  467000    2.6229189 0.0023844304    279726.26    1828882.8 -0.00010306834 0.00076182659 0.00057394077 
  468000    2.6210162 0.0023851536    279726.26    1833088.9 -3.9472642e-05 0.00078947545 0.00059568576 
  469000    2.6207994 0.0023854476    279726.26    1837320.6 -2.0505628e-05 0.00078703075 0.00055654256 
  470000    2.6221511 0.0023831893    279726.26    1841499.8 -4.4638674e-05 0.00081412178 0.00057268761 
  471000    2.6253771  0.002378995    279726.26    1845617.2 -1.841881e-05 0.00078464022 0.00068424761 
  472000    2.6201526 0.0023865691    279726.26    1849516.5 3.3633445e-06 0.00083481619 0.00067964531 
  473000    2.6200761 0.0024359671    279726.26    1853465.2 1.8213578e-06 0.00079997093 0.00045918659 
  474000    2.6250497 0.0023825742    279726.26    1857542.1 0.00024312484 0.00074433884 0.00061696813 
  475000    2.6238473 0.0023872136    279726.26    1861455.3 0.00044621359 0.00061447859  0.000617866 
  476000     2.621698 0.0023844103    279726.26    1865404.8 0.00048959546 0.00062064173 0.00062785377 
  477000    2.6250452 0.0024019022    279726.26    1869395.8 0.00050256818 0.00056625533 0.00061626188 
  478000    2.6228473 0.0023811083    279726.26      1873252  0.000537175 0.00053025783 0.00060193868 
  479000    2.6209198 0.0023855808    279726.26    1877124.6 0.00055190022 0.00051648849 0.00063995662 
  480000    2.6240264 0.0023850191    279726.26    1881034.6 0.00060255499 0.00055453008 0.00065242422 
  481000    2.6232151 0.0023893034    279726.26    1884887.3 0.00060554621 0.00051975609 0.00066063551 
  482000    2.6213261 0.0023848075    279726.26    1888683.3 0.00065883068 0.00046237844 0.00071421577 
  483000    2.6205266 0.0023861631    279726.26    1892407.4 0.00064782209 0.00044344812 0.00075711854 
  484000    2.6224241   0.00238372    279726.26    1896135.9 0.00065468455 0.00047881434 0.00073338342 
  485000     2.623352 0.0023801697    279726.26    1899906.1 0.00072461415 0.00052222466 0.00074314829 
  486000    2.6203316 0.0023861822    279726.26    1903622.9 0.0006765688 0.00056488834 0.0010009564 
  487000    2.6202713 0.0023864747    279726.26    1907376.2 0.00062452762 0.00058833396  0.001090817 
  488000    2.6235189 0.0023819525    279726.26    1911138.1 0.00059223952 0.00057473163 0.0011055238 
  489000    2.6215746 0.0024515911    279726.26    1914763.1 0.00059672249 0.00052403884 0.0010530688 
  490000    2.6212289 0.0023843801    279726.26    1918435.1 0.00047340715 0.00058578398 0.0011079377 
  491000    2.6269266 0.0023886237    279726.26    1922052.1 0.00039137618 0.00055688523 0.0011245775 
  492000     2.621261  0.002414754    279726.26    1925752.6 0.00028282298 0.00055215817 0.0010346501 
  493000    2.6204068 0.0023861668    279726.26    1929412.7 0.00024505531 0.00054520026 0.0010008277 
  494000    2.6246766 0.0023822682    279726.26    1933020.4 4.1168748e-05 0.00052137045 0.0010291457 
  495000    2.6202569 0.0023863675    279726.26      1936620 9.5270172e-05 0.00054676239  0.001110108 
  496000    2.6218655 0.0023844235    279726.26    1940266.1 0.00010926049 0.00057501771 0.0011130852 
  497000      2.62849 0.0023837891    279726.26    1944048.2   0.00016905 0.00045034849 0.0010867841 
  498000     2.627007  0.002389608    279726.26    1947837.5 0.00010691501 0.00047973721 0.0011322271 
  499000    2.6225971  0.002383163    279726.26      1951702 -2.9865855e-05 0.00050227805 0.0011607666 
  500000    2.6215277 0.0024046838    279726.26      1955587 -8.8823211e-06 0.00059479331 0.0011795615 
  501000    2.6208655 0.0023855367    279726.26    1959548.6 4.2875984e-07 0.00060229968 0.0011453491 
  502000     2.626992 0.0023904738    279726.26    1963565.2 8.6281617e-06 0.00059092218  0.001166275 
  503000    2.6255917 0.0023843005    279726.26    1967619.9 -4.3840564e-05 0.00052301265  0.001170165 
  504000    2.6220724 0.0023840133    279726.26    1971699.3 -2.9771365e-05 0.00053111381 0.0011751925 
  505000    2.6228989 0.0023822462    279726.26    1975891.4 0.0001138276 0.00042680807  0.001153156 
  506000    2.6201191 0.0023866069    279726.26    1980145.3 0.00012286935 0.00041557124 0.0010413433 
  507000     2.623981 0.0023830926    279726.26    1984154.6 0.00013146249 0.00015933574 0.00097672523 
  508000    2.6199983 0.0023864568    279726.26    1988115.7 0.00010822005 0.00019308852 0.00092507902 
  509000    2.6215575 0.0023840132    279726.26    1992132.8 9.7620999e-05 0.00017854145 0.00086388265 
  510000    2.6232896 0.0023831274    279726.26      1996229 6.9122374e-05 0.00016243655 0.00087117643 
  511000    2.6218352 0.0023832593    279726.26    2000315.2 2.4788059e-05 0.00021627527 0.0009339278 
  512000    2.6235675 0.0023824274    279726.26    2004506.8 -2.8293008e-05 0.00025159232 0.00091486537 
  513000    2.6204741 0.0023859091    279726.26    2008747.4 7.8661014e-05   0.00027955 0.0010758721 
  514000    2.6239236 0.0023814934    279726.26    2013028.7 4.9280547e-05 0.00035751913 0.0010306443 
  515000    2.6235965 0.0023827696    279726.26    2017254.9 6.4232754e-05 0.00034560714 0.0010402674 
  516000    2.6231198 0.0023847029    279726.26    2021470.1 -8.6000246e-05 0.0004371646 0.0011077696 
  517000    2.6269971 0.0023874426    279726.26      2025717 -8.4498352e-05 0.00042573286 0.0010837933 
  518000    2.6207818 0.0023852509    279726.26    2029904.7 -0.00010459286 0.00042800454 0.0010955639 
  519000    2.6203763 0.0023863993    279726.26    2033995.5 -1.2520522e-05 0.00039896588 0.0011425299 
  520000     2.621901 0.0023835797    279726.26    2037980.9 -6.3973064e-05 0.00036836577 0.0011512953 
  521000    2.6205259 0.0023856849    279726.26    2041942.9 -4.1883933e-05 0.00035858985  0.001174887 
  522000    2.6216073 0.0023837685    279726.26    2045945.6 -7.050051e-05 0.00031716129 0.0011756853 
  523000    2.6193035 0.0024699659    279726.26    2049957.6 -2.1344003e-05 0.0003347057 0.0011884717 
  524000    2.6273428 0.0023850651    279726.26    2053966.7 3.3821569e-05 0.00025269707 0.0011729542 
  525000    2.6227285 0.0023923374    279726.26    2057882.6 -1.3947977e-05 0.00038551268 0.0011844265 
  526000    2.6228762  0.002399484    279726.26    2061826.4 -9.8862333e-07 0.00035891163 0.0012339019 
  527000    2.6261799 0.0023815625    279726.26    2065766.2 -0.00013501166 0.00020779827 0.0011747058 
  528000    2.6256241 0.0023833477    279726.26      2069739 -0.00015491158 0.00019086011 0.0011513043 
  529000    2.6225392 0.0024301706    279726.26    2073835.4 -6.1607149e-05 6.7224993e-05 0.0010974763 
  530000    2.6231809 0.0023830954    279726.26    2078092.5 -0.00010281599 3.7703312e-05 0.0012242431 
  531000    2.6259864 0.0023782149    279726.26    2082272.1 -5.4355916e-05 -6.312852e-06 0.0012371516 
  532000    2.6200197 0.0023868906    279726.26    2086375.6 -0.00010611534 -7.003512e-05 0.0012664372 
  533000    2.6245707 0.0023833771    279726.26    2090518.6 -0.00014040598 -0.00010979524 0.0012876963 
  534000    2.6209417 0.0023848479    279726.26    2094665.8 -9.3704985e-05 -0.00011470058 0.0012402527 
  535000    2.6204181 0.0024337794    279726.26    2098878.2 -0.00015060619 -9.8574714e-05 0.0013434248 
  536000    2.6203511 0.0023860791    279726.26    2103028.6 -0.00017722922 -0.00011389522 0.0012228062 
  537000    2.6265553  0.002382499    279726.26    2107226.5 -0.00018544442 -0.00010353695 0.0011487937 
  538000    2.6209941 0.0024212375    279726.26    2111404.5 -3.9501179e-05 -0.0001233661 0.00096192568 
  539000    2.6221931 0.0023841069    279726.26    2115622.9 -0.00033341926 -0.00028392308 0.0010036346 
  540000    2.6196533 0.0023877355    279726.26    2119957.8 -0.0003414108 -0.0002856084 0.00099717848 
  541000    2.6276995 0.0023925815    279726.26    2124294.7 -0.00042228092 -0.00013187562 0.00096240569 
  542000    2.6244079 0.0024101253    279726.26    2128624.7 -0.00037656196 -9.8428131e-05 0.00095491093 
  543000    2.6220797 0.0023839485    279726.26    2132964.8 -0.00039882668 -0.00011869543 0.00096983327 
  544000    2.6171085 0.0024514528    279726.26    2137355.6 -0.00038988268 -0.00022269852 0.00090883183 
  545000    2.6253152 0.0023861665    279726.26    2141868.1 -0.00027275946 -0.00014324886 0.00076851387 
  546000    2.6234549 0.0023879256    279726.26    2146414.6 -0.00012402323 -0.00012522412 0.00068377615 
  547000    2.6205371 0.0023858971    279726.26    2150967.8 -8.1833463e-05 -5.9475246e-05 0.00067679099 
  548000    2.6214136 0.0023847608    279726.26    2155522.1 -3.4710684e-05 2.824922e-05 0.00081987482 
  549000    2.6224682 0.0023842919    279726.26    2160137.7 -8.5813827e-05 3.0332624e-05 0.00084837788 
  550000    2.6218684  0.002384731    279726.26      2164762 -5.2433411e-05 -3.2067376e-06 0.00081672657 
  551000    2.6236659 0.0023927233    279726.26      2169305 -0.00022974971 4.6914413e-05  0.001236482 
  552000    2.6200725 0.0024336447    279726.26    2173748.8 -0.00017477439 0.00015364797 0.0011825565 
  553000    2.6226207 0.0023831097    279726.26    2178390.6 -0.00021806066 0.00014559763 0.0011513496 
  554000    2.6254132 0.0023824455    279726.26    2183088.5 -0.00010724624 2.0916172e-05 0.0010899196 
  555000    2.6161215 0.0024436968    279726.26    2187756.2 1.5637217e-05 0.00015596864 0.0011459868 
  556000    2.6230803 0.0023835965    279726.26    2192501.7 -8.1233088e-05 -1.0274464e-05 0.0010548551 
  557000    2.6220782 0.0023937204    279726.26    2197308.6 -7.3468507e-05 1.4320453e-05 0.0011202887 
  558000    2.6204043 0.0023858449    279726.26    2202188.4 -2.9869895e-05 7.569229e-05 0.0011339249 
  559000    2.6222492 0.0023856852    279726.26    2207026.5 -9.2452789e-05 0.00010171722 0.0011520581 
  560000    2.6236399 0.0023835613    279726.26    2211788.9 -0.00028835158 -0.00012026751 0.00096444722 
  561000    2.6214488 0.0023834735    279726.26    2216559.1 -0.00028765927 -5.1872519e-05 0.0010056224 
  562000    2.6230367 0.0023816904    279726.26      2221387 -0.00040559154 -6.9717732e-05 0.0009591891 
  563000    2.6202708 0.0023860705    279726.26    2226205.5 -0.00034350215 -6.5416984e-05 0.00095042615 
  564000    2.6220095 0.0023849254    279726.26      2231108 -3.3287286e-05 1.0174329e-06 0.00091833432 
  565000    2.6263854 0.0023788757    279726.26      2236050 8.8130735e-05 6.1420848e-05 0.00056018255 
  566000    2.6207895 0.0023855203    279726.26    2241103.7 4.0841852e-05 4.2819653e-05 0.00057050545 
  567000    2.6203328 0.0024242601    279726.26      2246057 -8.8526838e-05 6.691225e-05 0.00033010192 
  568000    2.6246006 0.0023814802    279726.26    2250792.8 -0.00021339959 3.7180023e-05 0.00036474354 
  569000    2.6208406 0.0024125952    279726.26    2255568.8 -4.1886185e-05 0.00031207913 0.00022939664 
  570000    2.6202321 0.0023860323    279726.26    2260534.6 -1.5130358e-05 0.00030608959 0.0001266318 
  571000    2.6197013 0.0023876504    279726.26    2265464.4 -7.5972122e-05 0.00028877896 0.00017244973 
  572000    2.6238685 0.0023822198    279726.26    2269994.7 -0.00016210688 0.00031102199 6.6472054e-05 
  573000    2.6198249 0.0023871963    279726.26      2274337 -0.00018627402 0.0003394828 9.7791803e-05 
  574000    2.6235466 0.0023851941    279726.26    2278629.3 -9.5844648e-05 0.0003099264 0.00020659998 
  575000    2.6246282 0.0023869104    279726.26    2282770.9 -2.050296e-05 0.00028924143 0.00019846172 
  576000    2.6212638 0.0023841446    279726.26    2286756.7 -0.00012430123 0.00028158238 0.00020301661 
  577000    2.6228711 0.0023847644    279726.26    2290792.1 -0.00011622166 0.00023654508 0.00025521475 
  578000    2.6207919 0.0023848907    279726.26    2294846.5 -0.00019144593 0.00027817009 0.00025142686 
  579000    2.6238272 0.0023874126    279726.26    2298917.6 -0.00017955431 0.00029366193 0.00022082363 
  580000    2.6211637 0.0023843305    279726.26      2303033 -0.00019727934 0.00031099284 0.00025479443 
  581000    2.6207055 0.0023853301    279726.26    2307181.5 -0.00024316923 0.00031326732 0.00029326095 
  582000    2.6269979 0.0024031796    279726.26    2311368.6 -0.0002234282 0.00022993407 0.00015537957 
  583000    2.6229295 0.0023822308    279726.26      2315429 -0.00016550392 0.00014570102 0.00016756712 
  584000    2.6229998 0.0023827246    279726.26    2319554.5 -0.00016935355 0.00020026166 0.00013259029 
  585000    2.6228521 0.0023834095    279726.26    2323826.2 -0.00017784082 0.00019899947 0.00015671577 
  586000    2.6261257 0.0023871556    279726.26    2328079.7 -0.00015701812  8.26071e-05 0.00026056557 
  587000    2.6230026 0.0023847947    279726.26    2332261.9 -0.00021143619 -5.5410265e-05 0.00025910302 
  588000    2.6256121 0.0023782622    279726.26    2336370.1 -0.00023632612 -8.2083014e-05 0.00031485294 
  589000    2.6245765  0.002387314    279726.26    2340411.4 -0.00015755763 -2.2588932e-05 0.00022335112 
  590000    2.6236879 0.0023905904    279726.26    2344526.1 -0.0002300923 -1.5920546e-05 0.00026617478 
  591000    2.6225908 0.0023831721    279726.26    2348700.6 -8.9311453e-05 -9.985024e-05 0.00019509627 
  592000     2.620089 0.0023867466    279726.26    2352721.9 -8.9282541e-05 -8.8972315e-05 0.0002170303 
  593000    2.6258142 0.0023821828    279726.26      2356832 -0.00011024756 -0.00018188992 0.00021926648 
  594000    2.6233503 0.0023827573    279726.26    2360915.5 -0.00012216119 -0.00017048709 0.00023011622 
  595000    2.6201638 0.0023863722    279726.26    2365022.8 -8.9280243e-05 -0.00015474062 0.00021671415 
  596000    2.6238607 0.0023846874    279726.26    2369076.8 -0.00012350467 -0.00020524022 0.00021829609 
  597000    2.6155352 0.0024493161    279726.26    2373144.7 -5.9806851e-05 -0.00018188073 0.00031816915 
  598000    2.6221336 0.0023834686    279726.26    2377251.5 -0.00013848658 -0.00020884312 0.00021308983 
  599000    2.6223494 0.0023835893    279726.26    2381475.8 -0.00014998485 -0.0002069752 0.0002148519 
  600000    2.6239199 0.0023847016    279726.26    2385781.4 -0.00012782086 -0.00017697085 0.00020825585 
  601000    2.6224841 0.0024670666    279726.26    2390040.2 -0.00013959158 -0.00015969157 0.00017500573 
  602000    2.6235907 0.0023841035    279726.26    2394274.4 -0.00011328296 -0.00018774366 0.00017329869 
  603000    2.6262786 0.0023887566    279726.26    2398507.9 -2.86389e-05 -0.00019821285 0.00019129934 
  604000    2.6225608 0.0023821379    279726.26    2402656.2 3.576505e-05 -0.00024570571 0.00022786782 
  605000    2.6212511 0.0023849311    279726.26    2406717.4 2.0974627e-05 -0.00024152833  0.000324253 
  606000     2.619889 0.0024378336    279726.26    2410753.4 -2.7424606e-05 -0.00018434515 0.00049348491 
  607000     2.621243 0.0024085347    279726.26      2414822 -0.0001149617 -0.0001240429 0.00033981557 
  608000    2.6235222 0.0023815535    279726.26    2418866.7 -0.00028798646 4.4786104e-05 0.0004760728 
  609000    2.6200663 0.0023868818    279726.26    2422941.3 -0.00028864172 -7.2108723e-06 0.00046766506 
  610000     2.623032 0.0023857359    279726.26    2427034.2 -0.00030602459 1.5515776e-05 0.00043898777 
  611000    2.6150342 0.0024730829    279726.26    2431163.2 -0.00027340335 0.00012062881 0.00048083954 
  612000    2.6230775 0.0023819194    279726.26    2435290.7 -0.00033485035 5.2358371e-05 0.00048605818 
  613000    2.6231293 0.0023828023    279726.26    2439716.1 -0.00012018263 0.00016497984 0.0003601433 
  614000    2.6217724 0.0023835641    279726.26    2444264.5 -0.00014624153 8.6883034e-05 0.00035553259 
  615000    2.6207396 0.0023851527    279726.26    2448815.4 -0.00016382892 6.869538e-05 0.00036026521 
  616000    2.6259673 0.0023861636    279726.26    2453389.2 -0.00019765502 7.1008016e-05 0.00037372658 
  617000    2.6201253 0.0023865507    279726.26    2457995.6 -0.00010916002  0.000173086 0.00050201518 
  618000    2.6221622 0.0023834213    279726.26    2462471.2 -0.00012697795 0.00025335276 0.00037210467 
  619000    2.6256648 0.0024088851    279726.26    2466664.9 -0.00010657592 0.0003107623 0.00036566654 
  620000    2.6231434 0.0024211942    279726.26    2471039.7 -0.00021767821 0.00031370034 0.00028266439 
  621000     2.621561 0.0023836218    279726.26    2475332.2 -0.00016599667 0.0003608684 0.00037849551 
  622000    2.6220801 0.0023836255    279726.26    2479627.3 -0.00015655425 0.00040573077 0.00047681692 
  623000    2.6228366 0.0023919794    279726.26    2483859.7 -0.00018884175 0.00042561912 0.00043086672 
  624000    2.6229254 0.0023850111    279726.26      2488126 -0.00020315833 0.00041538868 0.00037455762 
  625000    2.6204074 0.0023863935    279726.26    2492398.9 -0.00018512238 0.0004256195 0.00037986249 
  626000    2.6230285 0.0023831416    279726.26    2496712.5 -0.00012878443 0.00033732899 0.00032033996 
  627000    2.6240462 0.0023812147    279726.26    2501035.1 -0.00011538947 0.00025897431 0.00034697362 
  628000    2.6222515 0.0023955477    279726.26    2505455.5 -5.5422319e-05 0.00026584608 0.00033877955 
  629000    2.6212806  0.002384044    279726.26    2509808.2 -3.3545986e-06 0.00032160136 0.00037324819 
  630000    2.6264575  0.002387219    279726.26    2514198.6 4.6505596e-05 0.00029482055 0.00038088795 
  631000    2.6228597 0.0023827302    279726.26    2518586.3 3.4657368e-05 0.00028823569 0.00047008654 
  632000    2.6210033  0.002385093    279726.26      2523115 0.00023267127 0.00026349801 0.00045590822 
  633000    2.6206403 0.0023858644    279726.26    2527699.6 0.00022629435 0.00032723702 0.00044262818 
  634000    2.6221088 0.0023852157    279726.26    2532330.6 0.00023024242 0.00032089747 0.0004283842 
  635000    2.6258499 0.0023838121    279726.26    2537059.4 0.00022465912 0.00027491695 0.00047280769 
  636000    2.6227719 0.0024231702    279726.26    2541839.1 0.00019419005 0.00024522573 0.00046929542 
  637000    2.6258252 0.0023944933    279726.26    2546515.8 0.00017222381 0.00037615115 0.00034821616 
  638000    2.6240811 0.0023806701    279726.26    2551253.4 0.00019478806 0.00040167458 0.0003410114 
  639000    2.6230618  0.002382469    279726.26      2556028 0.00017715753 0.00042115866 0.00033415078 
  640000    2.6285131 0.0023842207    279726.26    2560878.7 0.00011703407 0.00044797994 0.00035068198 
  641000    2.6221437 0.0023835414    279726.26      2565732 0.0002039565 0.00072521998 0.0001675704 
  642000    2.6181617 0.0024366488    279726.26    2570661.2 0.00045058007 0.00052218862 0.00025181255 
  643000    2.6228946 0.0023817934    279726.26    2575522.5 0.00036440028 0.00068128636 0.00037356995 
  644000    2.6275019 0.0023776317    279726.26    2580309.4 0.00039549472 0.00059475201 0.00020707161 
  645000    2.6227289  0.002391522    279726.26    2585190.8 0.0003467887 0.00066790701 0.00017198085 
  646000    2.6275304  0.002392184    279726.26    2590155.6 0.00038158304 0.00065071533 0.0001845188 
  647000    2.6267041 0.0023997943    279726.26    2595114.6 0.00032572354 0.00065262498 0.00010994338 
  648000    2.6257146 0.0024025177    279726.26    2600092.9 0.00029028255 0.00060286933 0.00015630369 
  649000    2.6242918 0.0023813815    279726.26    2605018.6 0.00026575987 0.00048754477 9.4896189e-05 
  650000    2.6230899 0.0023830927    279726.26    2609882.1 0.00028777942 0.00045308673 0.00015269972 
  651000    2.6211073 0.0023847882    279726.26    2614522.6 0.00033849137 0.00041566972 0.00011459085 
  652000    2.6227694 0.0024007207    279726.26    2619187.3 0.00028673656 0.00039296825 0.00011808795 
  653000    2.6239983 0.0023907491    279726.26      2623938 0.00029382649 0.00034146453 9.8074427e-05 
  654000    2.6229568 0.0023829471    279726.26    2628668.5 0.00025965206 0.00040772437 0.00012233076 
  655000    2.6199041 0.0023868271    279726.26    2633440.3 0.00026329167 0.00041093907 7.9708368e-05 
  656000    2.6207567 0.0023855606    279726.26    2638180.6 0.00031559601 0.00048606629 8.3322319e-05 
  657000    2.6208172   0.00238515    279726.26    2642953.1 0.00038589246 0.00046750254 0.00014715046 
  658000    2.6223048 0.0023869031    279726.26    2647815.9 0.00039157919 0.00053262277 0.0001618385 
  659000    2.6202067 0.0023864589    279726.26    2652836.3 0.00037499181 0.00051207786 0.00019454944 
  660000    2.6203597  0.002386632    279726.26    2658025.1 0.00038441796 0.00050937769 0.00020441805 
  661000    2.6217989 0.0023854495    279726.26    2663249.4 0.00065301266 0.00041518484 0.00033879862 
  662000    2.6241415 0.0023845575    279726.26    2668541.9 0.00062161759 0.00039075629 0.00038446687 
  663000    2.6217637 0.0023845709    279726.26    2673907.7 0.00066133748 0.00033480009 0.0004675795 
  664000    2.6246961 0.0023819786    279726.26    2679392.3 0.00059385708 0.00032855308 0.00056861807 
  665000    2.6212201 0.0023849587    279726.26    2684759.7 0.00045947232 0.00019581807 0.00031468344 
  666000    2.6252751 0.0024094477    279726.26      2690122 0.00046146218 0.00019683588 0.00032119589 
  667000    2.6196692 0.0023875902    279726.26    2695483.5 0.00044853371 0.00023913981 0.00033677114 
  668000    2.6247905 0.0023839666    279726.26    2700914.5 0.00044547239 0.0002284341 0.00033312271 
  669000    2.6226868 0.0023826751    279726.26    2706438.6 0.00047018024 0.00030717974 0.00030321514 
  670000    2.6220559 0.0023841853    279726.26    2711787.4 0.00060180607 0.00027185075 0.00030862996 
  671000     2.621988  0.002383296    279726.26    2716973.7 0.00058110027 0.0002665374 0.00034596517 
  672000    2.6236925 0.0023813899    279726.26      2722192 0.00051207324 0.00024199117 0.00031453054 
  673000    2.6212963 0.0023838524    279726.26    2727461.1 0.00048731054 0.00025190022 0.00030541533 
  674000    2.6260854 0.0023791717    279726.26    2732607.1 0.00037636607 0.0003034813 0.00026431145 
  675000    2.6220994 0.0023876177    279726.26    2737609.1 0.00035156123 0.00030906454 0.00026349683 
  676000    2.6198723 0.0023869959    279726.26    2742626.5  0.000281159 0.00034015414 0.00022731075 
  677000    2.6277564 0.0023843498    279726.26    2747634.4 0.00023534061 0.00036232713 0.00030130006 
  678000    2.6238091 0.0023827411    279726.26    2752750.8 0.00029812886 0.00037931732 0.00021820678 
  679000    2.6210352 0.0023855908    279726.26    2757946.6 0.00028871203 0.00035453123 0.00021300855 
  680000    2.6205487 0.0023860252    279726.26    2763211.3 0.00027386435 0.00033189839 0.0002180361 
  681000    2.6210726 0.0023845652    279726.26    2768465.5 0.00042881793 0.00041444086 0.0003057463 
  682000    2.6215527 0.0023840999    279726.26    2773793.1 0.00045359437   0.00044612 0.00027615808 
  683000    2.6233473 0.0023844915    279726.26    2779103.1 0.00033249671 0.00053675657 0.00033991683 
  684000    2.6223636 0.0023827883    279726.26    2784404.5 0.00037996907 0.00026295575 0.00022259172 
  685000    2.6215627 0.0023840042    279726.26    2789614.8 0.00030059142 0.00030666217 0.00031801842 
  686000    2.6202918 0.0023860719    279726.26    2794947.1 0.00031847995 0.00030321052 0.00034222042 
  687000    2.6241798 0.0023826006    279726.26    2800309.4 0.00038814365 0.00032631528 0.00036190074 
  688000    2.6217924  0.002382984    279726.26    2805780.2 0.00032666921 0.00029821246 0.00035063528 
  689000    2.6205062 0.0023858143    279726.26    2811245.4 0.00031495847 0.00030306329 0.00032498768 
  690000    2.6228413 0.0023813293    279726.26    2816761.3 0.00031203017 0.0002912444 0.00031941458 
  691000    2.6224813 0.0024254961    279726.26    2822297.1 0.0004490927 0.00024514886 0.00030620173 
  692000    2.6230944 0.0023815527    279726.26    2827808.3 0.00039162935 0.00027001533 0.00036291209 
  693000    2.6205114 0.0023855327    279726.26    2833393.2 0.00036593897 0.00023425094 0.00034656172 
  694000    2.6211684 0.0023848465    279726.26    2839046.3 0.00037240518 0.00024235459 0.00034552398 
  695000    2.6207419 0.0023859081    279726.26    2844740.9 0.00036297957 0.00023519855 0.00034371261 
  696000    2.6177357 0.0024651413    279726.26    2850426.3 0.00020086646 0.00020753645 0.00036240936 
  697000    2.6249497 0.0023845137    279726.26    2856036.1 0.00037965319 0.00019817174 0.00047606712 
  698000    2.6226594 0.0023826498    279726.26    2861635.6  0.000408854 0.00013447949 0.0004685989 
  699000    2.6208339 0.0024190015    279726.26    2867225.5 0.00033901494 0.00012933977 0.00040915558 
  700000    2.6225176 0.0023839013    279726.26    2872906.6 0.00042717095 0.00016800437 0.00049427405 
  701000    2.6211786 0.0023849219    279726.26      2878667 0.00040040341 0.00019547123 0.00050781086 
  702000    2.6218258 0.0023835554    279726.26    2884409.3  0.000414011 0.00020019469 0.0005030326 
  703000    2.6241662 0.0023810408    279726.26    2890169.7 0.00037498659 0.00014519484 0.00048136536 
  704000    2.6220716 0.0024060862    279726.26    2895936.6 0.00040084536 8.6449555e-05 0.0004487952 
  705000    2.6211365 0.0023846152    279726.26    2901736.4 0.0004130869 0.00010196077 0.0004354501 
  706000    2.6214084 0.0023844516    279726.26    2907559.3 0.00050066447 0.00011736315 0.00044319304 
  707000    2.6210298 0.0024322376    279726.26    2913374.5 0.00048978439 0.00012935908 0.00046905602 
  708000    2.6197736 0.0023873084    279726.26    2919177.7 0.00050184784 0.00010622979 0.00047612967 
  709000    2.6242499 0.0024281304    279726.26    2925095.2 0.00022134726 6.9660273e-05 0.00044323113 
  710000    2.6202742 0.0023861057    279726.26    2930979.8 0.00043999444 2.6565772e-05 0.00053883433 
  711000    2.6219091 0.0023842166    279726.26    2936745.8 0.00047640768 5.8749345e-05 0.00056091585 
  712000    2.6217931 0.0023860403    279726.26    2942567.4 0.00049089402 4.4195738e-05 0.00054011425 
  713000    2.6270419 0.0024022095    279726.26    2948446.6 0.0004729735 7.6118189e-06 0.00055800674 
  714000    2.6236093 0.0023835615    279726.26    2954386.3 0.00035962257 -2.1398574e-05 0.00053058084 
  715000    2.6243923 0.0023815723    279726.26    2960346.6 0.00027161766 -2.5436783e-05 0.00061047732 
  716000     2.619944 0.0023870071    279726.26    2966208.6 0.00014683342 -0.00010075085 0.00040749787 
  717000    2.6216802 0.0023832643    279726.26    2972088.7 9.8554005e-05 -7.5584167e-05 0.00033791978 
  718000     2.620729 0.0023854979    279726.26    2977944.7 0.00011160807 -5.7746728e-05 0.00036474833 
  719000    2.6233474  0.002382933    279726.26    2983885.1 4.448702e-05 -5.5252934e-05 0.0003570361 
  720000    2.6213673  0.002408424    279726.26    2989933.6 8.9669064e-05 -3.1158252e-05 0.00031220709 
  721000    2.6221378 0.0023849589    279726.26    2995970.1 1.3811056e-05 -7.9502158e-05 0.00030467412 
  722000    2.6296005 0.0023899422    279726.26    3001734.2 -0.00010215584 -0.00026423369 0.00022435628 
  723000    2.6219369 0.0023866628    279726.26    3007526.5 -5.0260676e-05 -0.00020437042 0.0002267938 
  724000     2.622715 0.0023848324    279726.26    3013361.6 -4.18235e-05 -0.00018354831 0.00023007034 
  725000    2.6210215  0.002385171    279726.26    3019243.6 -1.1394635e-05 -0.00016995108 0.00016780538 
  726000     2.619988 0.0023871683    279726.26    3025155.8 -0.00013622112 -0.00010122592 0.00018641476 
  727000    2.6200689 0.0023866744    279726.26    3031007.7 -3.7262634e-05 -0.00016803891 0.0002045301 
  728000    2.6239106 0.0024113402    279726.26    3036820.7 -8.5332036e-05 -0.00013360764 0.00015902383 
  729000    2.6182845 0.0024294614    279726.26    3042684.8 -0.00024540238 -0.00052123141 0.00011254638 
  730000     2.626187 0.0023789782    279726.26    3048705.8 -2.9373765e-05 -0.00022949811 -7.6673424e-05 
  731000    2.6210186  0.002385435    279726.26    3054777.3 -3.6181121e-05 -0.0002545684 -6.6559762e-05 
  732000    2.6149236  0.002453421    279726.26    3060967.2 -0.00014002466 -0.00021216939 -4.0148011e-05 
  733000    2.6205708 0.0023852149    279726.26    3067151.8 2.8618565e-05 -0.00031742729 -0.00010897848 
  734000    2.6215119   0.00238463    279726.26    3073427.1 -7.9685993e-06 -0.00034260531 -0.00012468858 
  735000    2.6254786 0.0024143723    279726.26    3079809.8 3.4292395e-05 -0.00028112107 -3.256326e-05 
  736000    2.6213005 0.0023849628    279726.26    3086114.6 -2.7782309e-05 -0.00033348105 -8.3165526e-05 
  737000    2.6243291 0.0024105321    279726.26    3092445.5 -0.00011256559 -0.00034516097 -0.00019410919 
  738000    2.6233203 0.0023871446    279726.26    3098736.8 -0.00016929239 -0.00034925638 -0.00017200721 
  739000    2.6216874 0.0023839631    279726.26    3104891.6 -3.7201612e-05 -0.0003558161 -0.00021084893 
  740000    2.6224449 0.0023836262    279726.26    3110934.1 8.7597839e-05 -0.00041284304 -0.00020475993 
  741000    2.6209244 0.0023851342    279726.26      3116976 0.00011283646 -0.00038528034 -0.00023003497 
  742000    2.6212547 0.0023847827    279726.26      3122923 0.00024619893 -0.00032779469 -9.5937104e-05 
  743000    2.6204764 0.0023861277    279726.26    3128750.4 0.0001485406 -0.00024237096 -9.4910468e-05 
  744000    2.6231828 0.0023830977    279726.26    3134623.6 0.00021026704 -0.00023977882 -7.4324772e-05 
  745000    2.6235508 0.0023819725    279726.26    3140422.2 0.00018946511 -0.00020960155 -0.00013571773 
  746000    2.6224145 0.0023834775    279726.26    3146251.1 0.00019243911 -0.00022136472 -0.00011038091 
  747000    2.6230057 0.0024067148    279726.26    3151965.8 0.00014125357 -0.00031165137 -8.591175e-05 
  748000    2.6255776 0.0023795754    279726.26    3157512.7 0.00012728349 -0.00029105119 -0.00011136544 
[...]
 1847000    2.6220004 0.0023855154    279726.26    7881604.2 -0.0001802521 -9.6889933e-05 -8.2549238e-06 
 1848000    2.6255879 0.0023943546    279726.26    7886864.8 -0.00021298288 -0.00010784552 -3.683473e-05 
 1849000    2.6235203 0.0024084362    279726.26    7892215.9 -0.00016537304 0.00018946392 0.00013778489 
 1850000    2.6263225 0.0023909604    279726.26    7897642.2 -0.00020716785 9.902705e-05 7.234496e-05 
 1851000    2.6222089 0.0023826389    279726.26    7902772.1 -0.00018097475 9.5312424e-05 4.7036688e-05 
 1852000    2.6277725 0.0023830991    279726.26    7907907.6 -0.00029061159 -1.55655e-05 0.00014386216 
 1853000     2.624681 0.0023974673    279726.26    7912952.8 -0.00024812297 -8.4662955e-05 5.9701968e-05 
 1854000    2.6234945 0.0024055355    279726.26    7917923.5 -0.0003279096 -0.0001790703 0.00013152547 
 1855000    2.6240403 0.0024375188    279726.26    7922830.5 -0.00036610074 -0.00018021818 1.6971028e-05 
 1856000    2.6225824 0.0023840755    279726.26    7927779.9 -0.00023971421 -0.00020929087 5.7238937e-05 
 1857000    2.6199402 0.0024239757    279726.26    7932805.1 -0.00023210893 -0.00021237253  2.96883e-06 
 1858000    2.6209601 0.0023850526    279726.26    7937904.8 -0.00026310845 -0.00016255467 3.2325995e-05 
 1859000    2.6228256 0.0023831434    279726.26    7943258.6 -0.00021697954 -0.00015355229 -4.0752924e-05 
 1860000    2.6270753 0.0023957335    279726.26    7948780.5 -0.00016777542 -0.00015119333 2.1509371e-06 
 1861000    2.6231057 0.0023819993    279726.26    7954603.2 -0.00026750397 -0.0001926754 8.5666089e-05 
 1862000    2.6204525 0.0023863985    279726.26    7960547.4 -0.00026393092 -0.00016679375 7.4197917e-05 
 1863000    2.6250379 0.0023811288    279726.26    7966447.8 -0.00027827941 -9.7873103e-05 5.6148896e-05 
 1864000    2.6271052 0.0024114489    279726.26    7972283.1 -0.00026095478 -0.00027779009 0.00013240964 
 1865000    2.6184592 0.0024410006    279726.26    7978011.1 -0.00033975482 -0.0003229512 -0.00013219672 
 1866000    2.6255177 0.0023878984    279726.26    7983721.3 -0.00036158072 -0.00021510433 -4.095218e-05 
 1867000    2.6252412 0.0023922799    279726.26    7989308.3 -0.00038630992 -0.00027718693  1.03951e-05 
 1868000    2.6243787 0.0023890221    279726.26    7994921.7 -0.00035875926 -0.00029204331 -1.8372538e-06 
 1869000    2.5980486 0.0025552114    279726.26    8000625.9 -0.00042399817 8.3166248e-05 0.00020513295 
 1870000    2.6218736 0.0024236213    279726.26    8006153.1 -0.00042590329 -0.00035122839 0.00016960156 
 1871000    2.6209556 0.0023851727    279726.26    8011800.5 -0.00036858366 -6.4162807e-05 0.00025278219 
 1872000    2.6227579 0.0023917356    279726.26    8017518.3 -0.00034953012 -9.0564717e-05 0.00021895102 
 1873000    2.6229801 0.0023857407    279726.26    8023094.5 -0.00030676381 1.2346355e-05 0.00022251258 
 1874000    2.6211686 0.0023845155    279726.26    8028468.8 -0.00030870665  4.07221e-05 0.00034207067 
 1875000    2.6209623 0.0023853671    279726.26      8033864 -0.00029728591 2.518156e-05 0.00030324948 
 1876000    2.6236703 0.0023868047    279726.26    8039035.2 -0.00028166625 -1.061215e-05  0.000321409 
 1877000    2.6230331 0.0023922514    279726.26    8044195.7 -0.00028923365 -1.045231e-05 0.00033518899 
 1878000     2.629797 0.0023942646    279726.26    8049398.1 -0.00025898294 -0.00010542512 0.00026540161 
 1879000    2.6207226   0.00238556    279726.26    8054544.4 -0.00031340945 -0.0001073754 0.0003160379 
 1880000    2.6210246 0.0024473725    279726.26    8059726.5 -0.00034937108 -0.00018879824 0.00031051411 
 1881000    2.6212152 0.0023841427    279726.26    8064936.3 -0.00039871587 -9.8999988e-05 0.00031923663 
 1882000     2.623317 0.0023872739    279726.26    8070262.9 -0.00037977144 -0.00011359191 0.00036032355 
 1883000    2.6234901 0.0023823021    279726.26    8075496.5 -0.00035873363 -2.7032169e-05 0.00024770318 
 1884000    2.6278092  0.002376902    279726.26    8080569.4 -0.000331075 -2.1403125e-05 0.00020477847 
 1885000    2.6180078 0.0024488645    279726.26    8085644.6 -0.0001467175 -0.00024804664 0.00064745413 
 1886000    2.6220272 0.0023834864    279726.26    8090664.3 -0.00019665474 -0.00010170936 0.00028979401 
 1887000    2.6222061  0.002382677    279726.26    8095710.4 -0.00019692342 -0.00015143148 0.00034012987 
 1888000    2.6240337 0.0023821177    279726.26    8100583.7 -0.00021086763 -0.00016450902 0.00034295649 
 1889000    2.6217984 0.0023843822    279726.26    8105536.5 -0.0002008448 -0.00013587276 0.00040964395 
 1890000    2.6214436 0.0023842199    279726.26    8110584.1 -0.0002023284 -0.00019252958  0.000448497 
 1891000    2.6220155 0.0023834809    279726.26    8115699.4 -0.00020413272 -0.00018224561 0.00045138849 
 1892000      2.62251 0.0023822329    279726.26    8120954.5 -0.00014345815 -4.2622828e-05 0.00052514765 
 1893000    2.6239932 0.0023822541    279726.26    8126348.6 -3.4258195e-05 -2.0562376e-05 0.00051689341 
 1894000    2.6251355  0.002380865    279726.26    8131816.4 -7.6980625e-05 -6.0131346e-05 0.00056064789 
 1895000    2.6262216 0.0023867311    279726.26    8137402.7 -2.7495809e-05 -8.4878596e-05 0.00056981952 
 1896000    2.6206255 0.0023854747    279726.26    8142917.6 -6.1131609e-05 -1.1292617e-05 0.00060268104 
 1897000    2.6218984 0.0024056661    279726.26    8148531.1 -1.8884437e-05 -6.2017489e-05 0.00055201919 
 1898000     2.621564  0.002383589    279726.26    8154267.8 -7.3654442e-05 -5.6080674e-06 0.0005825328 
 1899000    2.6223232 0.0023936695    279726.26      8159790 -5.8586408e-05 -5.6181435e-05 0.00047325912 
 1900000    2.6232096  0.002380856    279726.26    8164862.5 -0.00014192954 -7.778041e-05 0.00046532174 
 1901000    2.6233017 0.0023831239    279726.26    8169997.4 -0.00020637509 -0.00014764313 0.00052180444 
 1902000    2.6243394 0.0023806985    279726.26    8175504.1 -0.00013718934 -7.6034309e-05 0.0005954948 
 1903000    2.6234779 0.0023953532    279726.26    8180933.5 -0.00021328035 -0.0001200355 0.00052594696 
 1904000    2.6117464 0.0024871185    279726.26      8186333 -5.898743e-06 0.00020048685 0.00075972702 
 1905000    2.6217186 0.0023843849    279726.26    8191787.4 -0.00017990976 -0.00013388618 0.00053685728 
 1906000    2.6216388 0.0023839153    279726.26    8197052.2 -0.00018369459 -0.00014986305 0.00058619191 
 1907000    2.6252219 0.0023873392    279726.26    8202192.8 -0.00013821624 -0.00018541557 0.00063778367 
 1908000    2.6230199 0.0023980733    279726.26    8207361.8 -0.00017744194 -0.00025232992 0.00069509553 
 1909000    2.6324636 0.0023819164    279726.26    8212540.8 -0.00012002514 -0.00020570031 0.00067082274 
 1910000    2.6240502 0.0023919109    279726.26    8217461.9 -0.00012938063 -0.00025468797 0.00072753567 
 1911000     2.623836 0.0023998579    279726.26    8222536.5 -0.00018952517 -0.00028933381 0.00072559433 
 1912000    2.6234573 0.0023821823    279726.26    8227619.7 -0.00021421799 -0.00026765232 0.00075202858 
 1913000    2.6229603 0.0023877265    279726.26    8232639.7 -0.00030544484 -0.00034961403 0.00068977903 
 1914000    2.6176462  0.002497728    279726.26    8237726.1 -0.00015760991 -0.00039506112 0.00039407979 
 1915000    2.6243142 0.0023968322    279726.26    8242752.5 -0.00014824241 -0.00039262794 0.00043153083 
 1916000     2.625439 0.0023863233    279726.26    8247856.6 -3.2381736e-05 -0.00019663183 0.00024572007 
 1917000    2.6226006 0.0023833293    279726.26    8253134.7 1.3935744e-06 -0.00020119934 0.00027885568 
 1918000    2.6255052 0.0023871438    279726.26    8258527.5 4.8433101e-05 -0.00020682717 0.00027257269 
 1919000    2.6206518 0.0023853587    279726.26    8263985.5 1.736537e-05 -0.00022916962 0.00023793348 
 1920000    2.6198512 0.0023866897    279726.26    8269322.7 -4.0947917e-05 -0.00032232391 0.00021353003 
 1921000    2.6220938 0.0023829712    279726.26    8274787.1 -5.6456769e-05 -0.00027294261 0.0001434799 
 1922000     2.628431 0.0023763655    279726.26    8280148.7 -3.76189e-05 -0.00022958084 0.00015087352 
 1923000    2.6234773 0.0023818797    279726.26    8285191.6 -9.4716284e-05 -0.00026129895 0.00018368398 
 1924000    2.6223209 0.0023866195    279726.26      8290320 -0.0001100701 -0.00016319108 0.00018605605 
 1925000    2.6222035 0.0023849292    279726.26    8295565.3 -0.00010415353 -0.00013792588 0.00020309602 
 1926000    2.6205502 0.0023857272    279726.26    8300805.7 -9.0958674e-05 -0.00016075982 0.00024328428 
 1927000    2.6196563 0.0023876081    279726.26    8306027.8 -9.3764156e-05 -0.0001688626 0.00027474223 
 1928000    2.6222137 0.0023837954    279726.26    8311120.3 -7.8995044e-05 -0.00021791264 0.00044566741 
 1929000    2.6228241 0.0023840641    279726.26    8316109.4 -7.923322e-05 -0.00026572081 0.00047273589 
 1930000    2.6207404 0.0023855311    279726.26    8321037.9 -0.00016552506 -0.00012553645 0.00041934829 
 1931000    2.6240483 0.0024003455    279726.26    8326048.1 -0.00010258455 -8.7238212e-05 0.00049245804 
 1932000    2.6228803  0.002383239    279726.26    8331143.7 -9.6652239e-06 -0.00014575866 0.00043404649 
 1933000    2.6200788 0.0023866393    279726.26    8336130.6 2.9378804e-05 -0.00013125063 0.00047609915 
 1934000    2.6203547 0.0023855664    279726.26    8341129.5 6.7680361e-05 -0.0001209015 0.00046165877 
 1935000    2.6205068 0.0023854234    279726.26    8345911.5 7.3761066e-05 -0.00013836803 0.00054772649 
 1936000    2.6226215 0.0023880859    279726.26    8350555.8 0.00010984071 -0.00017534994 0.00054835057 
 1937000    2.6200183 0.0023865092    279726.26    8355210.6 0.00015948798 -0.0001118313 0.00051305972 
 1938000    2.6225802 0.0023878706    279726.26    8359934.6 0.00017392418 -0.0001361493 0.00056760935 
 1939000    2.6208157 0.0023856537    279726.26    8364606.5 2.2715775e-05 -0.00019118885 0.00067667234 
 1940000    2.6255278 0.0023825258    279726.26    8369266.9 -3.2019529e-05 -0.00010609488 0.00066089721 
 1941000    2.6219269 0.0023852982    279726.26    8374123.4 -2.4936857e-05 -6.2162299e-05 0.00061520303 
 1942000    2.6201149 0.0023868523    279726.26    8379036.3 -5.4446032e-05 -2.6541936e-05 0.00061364995 
 1943000     2.622799 0.0023826501    279726.26    8383899.7 -7.4925593e-05 -3.0342565e-05 0.00060656017 
 1944000    2.6226472 0.0023839194    279726.26    8388819.1 -8.3063239e-05 -2.8077105e-05 0.00058612648 
 1945000    2.6230247  0.002382061    279726.26    8393414.6 -4.4417259e-05 2.4711755e-05 0.00051749027 
 1946000    2.6229448 0.0023859995    279726.26    8397919.9 -7.5064583e-05 1.4740702e-05 0.0005244337 
 1947000    2.6256339  0.002382955    279726.26    8402252.1 -0.00011819149 2.9230372e-05 0.00051467179 
 1948000    2.6206511 0.0023856799    279726.26      8406614 -9.4600966e-05 5.6267882e-05 0.0004627392 
 1949000    2.6244649 0.0023870124    279726.26    8411222.4 -9.3897069e-05 2.0010352e-05 0.00048228977 
 1950000    2.6199302 0.0023867683    279726.26    8415807.1 -7.8708829e-05 3.5279719e-05 0.00049447004 
 1951000    2.6234862 0.0023818658    279726.26    8420323.5 -3.4939178e-06 4.7064839e-05 0.00040642119 
 1952000    2.6226598 0.0023944792    279726.26    8424875.3 -5.490764e-05 1.134198e-05 0.00041243559 
 1953000    2.6234297 0.0023820492    279726.26    8429501.3 -6.9547153e-05 -1.706313e-05 0.00035765694 
 1954000    2.6223943 0.0023845057    279726.26    8434163.3 -2.4331346e-05 -8.4049573e-07 0.00035957291 
 1955000    2.6205323 0.0023850242    279726.26    8438768.1 -0.00013007229 -8.3702561e-05 0.00037264117 
 1956000    2.6231238  0.002382178    279726.26    8443554.7 -0.0001196707 -9.3735843e-05 0.00039626655 
 1957000    2.6206761 0.0023849561    279726.26    8448326.7 -0.00016649216 -6.8643778e-05 0.00044236654 
 1958000    2.6266644 0.0024038796    279726.26    8453117.4 -0.00010094937 -3.5233502e-05 0.00041954734 
 1959000    2.6203279 0.0023861216    279726.26      8457959 -0.00015832133 -0.00023778497 0.00018053855 
 1960000    2.6230757 0.0023815573    279726.26    8462903.6 -0.00018243124 -0.00021875217 0.00013581954 
 1961000    2.6270752 0.0023891271    279726.26    8467846.3 -0.00014487181 -0.00026255133 0.00015917283 
 1962000    2.6217567 0.0024120151    279726.26    8472802.4 -0.00025345324 -0.00034025569 0.00012177886 
 1963000    2.6204803 0.0023852454    279726.26    8477434.4 -0.00022596297 -0.00027551843 0.00011743677 
 1964000    2.6108308 0.0024716613    279726.26    8481900.7 1.0568964e-05 -0.00033736243 0.00035873984 
 1965000    2.6227069  0.002384632    279726.26    8486587.9 -0.00020043426 -0.00016896466 0.00022028032 
 1966000    2.6246018  0.002380479    279726.26      8491257 -0.000331397 -0.00011796854 0.00018743939 
 1967000    2.6240665 0.0023822973    279726.26    8495818.9 -0.00032445661 -9.3048679e-05 0.00023717436 
 1968000    2.6225702 0.0023894249    279726.26    8500409.1 -0.00024817289 -8.8667819e-05 0.00034141564 
 1969000    2.6202521 0.0023859856    279726.26    8504847.3 -0.0001964017 -0.00011612674 0.00038862939 
 1970000    2.6221306 0.0023907528    279726.26    8509175.6 -0.00016866754 -0.00013711267 0.00038607966 
 1971000     2.621055 0.0023845671    279726.26    8513470.7 -0.00016316388 -0.00014828492 0.0003597757 
 1972000    2.6214169 0.0023845423    279726.26    8517769.3 -0.00035238928 -0.00016231793 0.00017808121 
 1973000    2.6219598 0.0023832426    279726.26    8522175.1 -0.00032732804 -0.00015192603 0.00016662082 
 1974000    2.6250734 0.0023886278    279726.26    8526816.8 -0.00023912623 -9.1562791e-05 0.00023460434 
 1975000    2.6223978 0.0024140768    279726.26      8531602 -0.00021489578 -0.00014436416 0.00029390569 
 1976000    2.6234553 0.0023818987    279726.26    8536465.1 -0.00019298069 -0.00012150606 0.00019180665 
 1977000    2.6229138 0.0023865515    279726.26    8541652.5 -8.0944206e-05 -0.00018433569 0.00019682344 
 1978000    2.6228547 0.0023919621    279726.26    8547059.4 -1.9515456e-05 -0.00014399408 0.00020039658 
 1979000    2.6226354 0.0023819746    279726.26    8552732.9 -7.1644229e-05 -0.00014686821 0.00016835709 
 1980000    2.6222321 0.0023916115    279726.26      8558480 -8.0526215e-05 -0.00012216251 0.00016124599 
 1981000    2.6217179 0.0023830597    279726.26    8564265.3 -6.7964737e-05 -0.00014193286 0.00014039403 
 1982000     2.623664 0.0023977877    279726.26    8570043.3 6.0996816e-05 -8.4296063e-05 8.124614e-05 
 1983000    2.6252596 0.0024294252    279726.26    8575739.2 6.423512e-05 2.6960537e-05 0.00010517941 
 1984000     2.630686 0.0023866068    279726.26    8581290.8 -0.00011093968 -0.00016078923 8.1482216e-05 
 1985000    2.6247308  0.002424261    279726.26    8586736.3 -0.00012981549 0.00013031081 0.00042477239 
 1986000    2.6207759 0.0023854175    279726.26    8592414.8 -2.2978485e-05 0.00010763625 0.00030892733 
 1987000    2.6214349 0.0023843134    279726.26    8598024.9 -7.4407216e-05 0.00012970988 0.00028836418 
 1988000    2.6222844 0.0023826935    279726.26    8603575.4 -0.0001324421 0.00013765495 0.00031339017 
 1989000    2.6212073 0.0023847523    279726.26    8608900.8 -0.00017243487 8.4698302e-05 0.00030854682 
 1990000    2.6216235 0.0023835444    279726.26    8614218.2 -0.00013895558 7.8719951e-05 0.00034409666 
 1991000    2.6250265 0.0023782791    279726.26      8619488 -0.00017648024 8.1191402e-05 0.00032032152 
 1992000    2.6254518 0.0023815499    279726.26    8624752.7 -0.00025268232 8.9696901e-05 0.0002709412 
 1993000    2.6201998 0.0023863286    279726.26    8629995.6 -0.00027747993 9.097992e-05 0.00025484155 
 1994000    2.6245514 0.0023901737    279726.26    8635375.2 -0.00026318839 0.00011975389 0.00030023865 
 1995000    2.6208488 0.0024087833    279726.26    8640792.4 -0.00024562037 0.00020195945 0.00015350725 
 1996000    2.6200863 0.0023862513    279726.26      8645768 -0.00025662509 0.00015807538 0.00026781489 
 1997000    2.6228143 0.0023830628    279726.26      8650723 -0.00026030777 0.00016267324 0.00024437732 
 1998000    2.6216487 0.0023831499    279726.26    8655716.1 -0.00016410584 0.00021655827 0.00028424414 
 1999000    2.6204204 0.0024376734    279726.26      8660685 -0.00012502362 0.00035457038 3.4619262e-05 
 2000000     2.620808 0.0023856159    279726.26    8665803.6 -0.00019058632 0.00041490158 0.0001675549 
Loop time of 868.39 on 1 procs for 2000000 steps with 256 atoms

Pair  time (%) = 5.83397 (0.671814)
Neigh time (%) = 29.9881 (3.4533)
Comm  time (%) = 4.03401 (0.464539)
Outpt time (%) = 0.205172 (0.0236267)
Other time (%) = 828.329 (95.3867)

Nlocal:    256 ave 256 max 256 min
Histogram: 1 0 0 0 0 0 0 0 0 0
Nghost:    61 ave 61 max 61 min
Histogram: 1 0 0 0 0 0 0 0 0 0
Neighs:    6 ave 6 max 6 min
Histogram: 1 0 0 0 0 0 0 0 0 0

Total # of neighbors = 6
Ave neighs/atom = 0.0234375
Neighbor list builds = 157985
Dangerous builds = 4284
#	run			10000
	unfix			1
	uncompute		myKE
	uncompute		myPE
	uncompute		myStress
	uncompute		flux
	uncompute		myDis
	unfix			JJ

	next seed
	next iseed
jump lmp.in.gk loop_seed
variable iseed loop 5
variable seed index 11111 22222 33333 44444 55555 ###66666 77777 88888 99999 11112
clear

# Lennard-Jones
#Prepare Geometry---------------------------------------------------------------
units			lj
atom_style		atomic
read_data		lmp.in.x0.1
  orthogonal box = (0 0 0) to (65.4 65.4 65.4)
  1 by 1 by 1 MPI processor grid
  256 atoms
#Initialize Structure-----------------------------------------------------------
#mass           	1  1.0
#group         		Ar type = 1
#LJ Potentials------------------------------------------------------------------
pair_style		lj/cut 2.5
pair_coeff		* * 1.0 1.0
pair_modify          	shift yes
#pair_modify   	tail no

#Variables----------------------------------------------------------------------
#LJ Parameters
variable    	kB 		equal 1.3806504e-23 	# [J/K] Boltzmann
variable	sigma_Ar 	equal 3.4e-10 		# m
variable	eps_Ar		equal 1.67e-21		# J
variable	mass_Ar		equal 6.63e-26		# kg
variable	tau_Ar		equal 2.1423e-12	# s
#thermo Parameters
variable    	T_melt 		equal 300*(${kB}/${eps_Ar})
variable    	T_melt 		equal 300*(1.3806504000000001236e-23/${eps_Ar})
variable    	T_melt 		equal 300*(1.3806504000000001236e-23/1.6699999999999999942e-21)
variable	T_0K		equal 0.00001
variable	T_2_5K		equal 2.5*(${kB}/${eps_Ar})
variable	T_2_5K		equal 2.5*(1.3806504000000001236e-23/${eps_Ar})
variable	T_2_5K		equal 2.5*(1.3806504000000001236e-23/1.6699999999999999942e-21)
variable	T_5K		equal 5*(${kB}/${eps_Ar})
variable	T_5K		equal 5*(1.3806504000000001236e-23/${eps_Ar})
variable	T_5K		equal 5*(1.3806504000000001236e-23/1.6699999999999999942e-21)
variable	T_10K		equal 10*(${kB}/${eps_Ar})
variable	T_10K		equal 10*(1.3806504000000001236e-23/${eps_Ar})
variable	T_10K		equal 10*(1.3806504000000001236e-23/1.6699999999999999942e-21)
variable	T_15K		equal 15*(${kB}/${eps_Ar})
variable	T_15K		equal 15*(1.3806504000000001236e-23/${eps_Ar})
variable	T_15K		equal 15*(1.3806504000000001236e-23/1.6699999999999999942e-21)
variable	T_320K		equal 320*(${kB}/${eps_Ar})
variable	T_320K		equal 320*(1.3806504000000001236e-23/${eps_Ar})
variable	T_320K		equal 320*(1.3806504000000001236e-23/1.6699999999999999942e-21)

variable   	dt 		equal 0.002
variable	quench_rate	equal 1.0
variable	quench_length 	equal 10000
#kappa parameters
variable    	p 		equal 200000 		# correlation length
variable    	s 		equal 5  		# sample interval
variable    	d 		equal $p*$s 		# dump interval
variable    	d 		equal 200000*$s 		
variable    	d 		equal 200000*5 		

#SED parameters
variable	w_step		equal 2^5
variable	w_total		equal 2^16
variable	t_total		equal 2^18
variable	num_ffts	equal ${t_total}/${w_total}
variable	num_ffts	equal 262144/${w_total}
variable	num_ffts	equal 262144/65536

#------------ RUN TEMP ---------------------------------------------------------------------
variable 	T_run 		equal ${T_320K}
variable 	T_run 		equal 2.6455576526946114058
#------------ RUN TEMP ---------------------------------------------------------------------

log 	log_heat_${iseed}.lammps
log 	log_heat_3.lammps
