	reset_timestep  	0
	fix 			1 all nve
	compute   		myKE all ke/atom
	compute   		myPE all pe/atom
	compute   		myStress all stress/atom virial
	compute   		flux all heat/flux myKE myPE myStress
	variable  		Jx equal c_flux[1]/vol
	variable  		Jy equal c_flux[2]/vol
	variable  		Jz equal c_flux[3]/vol
	fix       		JJ all ave/correlate $s $p $d c_flux[1] c_flux[2] c_flux[3] type auto file J0Jt_${iseed}.dat ave running
	fix       		JJ all ave/correlate 5 $p $d c_flux[1] c_flux[2] c_flux[3] type auto file J0Jt_${iseed}.dat ave running
	fix       		JJ all ave/correlate 5 100000 $d c_flux[1] c_flux[2] c_flux[3] type auto file J0Jt_${iseed}.dat ave running
	fix       		JJ all ave/correlate 5 100000 500000 c_flux[1] c_flux[2] c_flux[3] type auto file J0Jt_${iseed}.dat ave running
	fix       		JJ all ave/correlate 5 100000 500000 c_flux[1] c_flux[2] c_flux[3] type auto file J0Jt_10.dat ave running
#	fix       		JJ all ave/correlate $s $p $d c_flux[1] c_flux[2] c_flux[3] type auto ave running
#	dump			JJ all custom 1000000 J0Jt.dat f_JJ[3] f_JJ[4] f_JJ[5]
	compute 		myDis all msd
	thermo_style 		custom step temp press vol c_myDis[4] v_Jx v_Jy v_Jz
	thermo			1000
	timestep		${dt}
	timestep		0.0020000000000000000416
	run			1000000
Memory usage per processor = 3.6416 Mbytes
Step Temp Press Volume myDis[4] Jx Jy Jz 
       0    2.4480982 0.0021917448    284904.75            0 -0.00025514926 0.00062029579 0.00036047098 
    1000    2.4467376 0.0021795224    284904.75    29.079953 -0.0003205379 0.0005778514 0.00036705092 
    2000     2.452256 0.0022037369    284904.75     115.0136 -0.0004813194 0.00040612052 0.00033075606 
    3000    2.4467552 0.0021809305    284904.75    256.93796 -0.00046040023 0.00045375562 0.00030031508 
    4000    2.4454697  0.002197521    284904.75    455.65595 -0.00050677186 0.00045439774 0.00030266559 
    5000    2.4510776 0.0021803623    284904.75    711.56214 -0.00042793009 0.0004750822 0.00039542739 
    6000    2.4478014 0.0021967571    284904.75    1015.9627 -0.00036346474 0.00041858577 0.0002354219 
    7000    2.4443855 0.0021835505    284904.75    1374.0376 -0.00042454747 0.00040564912 0.00019412129 
    8000    2.4493189 0.0021857721    284904.75    1785.6717 -0.00043309596 0.00034566211 0.00021766738 
    9000    2.4510231 0.0021903467    284904.75    2249.4817 -0.00045862703 0.00042382828 0.0001435064 
   10000     2.445883 0.0021848955    284904.75    2766.1646 -0.00047016732 0.00041016157 0.00013199563 
   11000    2.4450299 0.0021827165    284904.75    3334.8452 -0.00053026978 0.00042092942 9.9258478e-05 
   12000    2.4474866 0.0021785565    284904.75    3959.5951 -0.00050704472 0.00055555039 8.724742e-05 
   13000    2.4454232  0.002180438    284904.75    4638.5126 -0.00051492679 0.0005548068 0.0001051286 
   14000    2.4471258 0.0021799865    284904.75     5359.325 -0.00053228872 0.00058536514 9.4772006e-05 
   15000    2.4459072   0.00218161    284904.75    6129.8691 -0.00052600117 0.00058142819 0.00015800006 
   16000    2.4436049 0.0021834121    284904.75    6949.1419 -0.00043078655 0.00046792225 0.00010536731 
   17000    2.4323125  0.002290775    284904.75    7816.3466 -0.0003556913 0.00027253967 3.3992505e-05 
   18000    2.4463606  0.002179974    284904.75    8722.5447 -0.00023271372 0.00046135909 -3.1871058e-05 
   19000    2.4446005 0.0021826969    284904.75    9675.0501 -0.00024217903 0.00053799662 -3.9052023e-05 
   20000    2.4466591 0.0021884461    284904.75    10663.952 -0.00025052432 0.00048581629 1.9383013e-05 
   21000    2.4461888  0.002193087    284904.75    11705.797 -0.00024490601 0.00049018666 -2.682975e-05 
   22000     2.442974 0.0021848225    284904.75    12792.403 -0.00020083517 0.00047090157 8.1897481e-06 
   23000    2.4439683 0.0021837744    284904.75    13929.406 -0.00022247094 0.0004464255 -2.2028507e-06 
   24000     2.443728 0.0021829583    284904.75    15122.283 -0.00021276223 0.00043541442 4.4410407e-05 
   25000    2.4561338 0.0021844749    284904.75    16365.121 -0.00017832067 0.00047119972 -4.280739e-05 
   26000    2.4428061 0.0021852294    284904.75    17656.865 -0.00024390419 0.00043824083 -7.8845906e-05 
   27000    2.4460679 0.0021817289    284904.75    18988.864 -0.00024716356 0.00049178042 -0.000155583 
   28000    2.4444977 0.0022091614    284904.75    20318.576 -0.00011498666 0.00024939998 -9.500451e-05 
   29000    2.4481973 0.0021805424    284904.75    21686.379 3.623031e-05 0.00039765168 -0.00011834225 
   30000    2.4445094 0.0021819781    284904.75    23081.822 5.8439028e-05 0.00040668723 -0.00015817177 
   31000    2.4484958 0.0021821783    284904.75    24518.869 -2.0352884e-05 0.00035129233 -0.0001112024 
   32000    2.4455815 0.0021956377    284904.75    25979.281 -4.1534505e-05 0.00033569098 -0.00010282014 
   33000    2.4438855 0.0021832771    284904.75    27482.757 7.3881634e-07 0.00030283031 -0.00013143539 
   34000    2.4522732  0.002173987    284904.75    29037.844 -1.7932698e-05 0.00040886738 -4.3908487e-05 
   35000    2.4541123 0.0021852507    284904.75    30620.188 -3.8318773e-05 0.00049671096 1.3019098e-05 
   36000    2.4483972 0.0022076897    284904.75    32243.331 3.9737091e-05 0.00058824731 7.0349056e-06 
   37000    2.4456335 0.0021973394    284904.75    33887.094 2.3707576e-05 0.00049908041 -6.1860507e-05 
   38000    2.4394957 0.0022694335    284904.75     35566.73 4.1900424e-05 0.00047595343 -0.00012400319 
   39000    2.4496078  0.002201249    284904.75    37272.304 0.00018230123 0.00052989434 7.7267048e-07 
   40000    2.4482941 0.0022102535    284904.75    39001.086 0.00010764004 0.00055268945 0.00013730692 
   41000    2.4473801 0.0021880606    284904.75    40757.381 8.4522044e-05 0.00062369547 5.3329323e-05 
   42000    2.4436052 0.0021835461    284904.75     42561.53 6.6747788e-05 0.00064964758 5.8074673e-05 
   43000     2.445843 0.0021840828    284904.75    44411.885 -1.5421049e-05 0.00065333073 0.00024537906 
   44000    2.4438908 0.0021830403    284904.75    46268.902 -3.7283892e-05 0.00059521457 0.00023689058 
   45000    2.4461366 0.0021807144    284904.75    48169.717 -2.460167e-05 0.00059541584 0.00026195586 
   46000    2.4439237 0.0021834103    284904.75    50117.375 -2.9928457e-05 0.00054642083 0.00026622774 
   47000    2.4484302 0.0021768604    284904.75    52103.337 -4.795306e-05 0.0005519779 0.00023637766 
   48000    2.4465438 0.0021792131    284904.75    54134.537 -6.6329327e-05 0.00056744878 0.00019327893 
   49000    2.4443311 0.0021828607    284904.75    56208.433 -5.4104936e-05 0.00055363841 0.00019847465 
   50000    2.4480547 0.0021844372    284904.75    58331.183 -8.9249934e-05 0.00055719381 0.00022551416 
   51000    2.4478524 0.0021796027    284904.75    60473.782 1.4363516e-05 0.00050480934 0.00016280968 
   52000    2.4444209 0.0021831819    284904.75    62645.582 1.0905377e-05 0.0005053765 0.00015122625 
   53000    2.4442135 0.0021830402    284904.75    64859.472 5.9000235e-05 0.00047753784 0.00012699927 
   54000     2.443107 0.0021844736    284904.75    67114.262 8.3222642e-05 0.0004602323 0.0001510544 
   55000    2.4539028 0.0021894856    284904.75    69416.198 7.7267313e-05 0.00046708818 0.0001375745 
   56000    2.4508338 0.0021749583    284904.75    71769.387 1.7429965e-05 0.00053182736 0.00010705604 
   57000    2.4456202 0.0021822012    284904.75    74167.221 4.856161e-05 0.00050904647 0.00010727709 
   58000    2.4455728 0.0022383703    284904.75    76620.619 0.00012861719 0.00039501435 2.2097869e-05 
   59000    2.4465579 0.0021900882    284904.75    79105.759 5.3027471e-05 0.0003378502 9.4142841e-05 
   60000     2.447032 0.0021812634    284904.75    81631.682 0.00011308551 0.00038625803 0.00010555476 
   61000    2.4472884 0.0021816462    284904.75    84197.918 -1.1943614e-05 0.00039321006 4.4147717e-05 
   62000    2.4487669  0.002220908    284904.75    86805.989 5.7917951e-06 0.0003211763 2.5782282e-05 
   63000    2.4457279 0.0021877766    284904.75    89452.591 -5.2053029e-05 0.00038017056 3.3784281e-05 
   64000    2.4545287 0.0021844478    284904.75    92147.566 -3.0962342e-05 0.0004061701 4.5155124e-05 
   65000     2.445634 0.0021816282    284904.75    94898.974 2.5711019e-05 0.00041263979 4.1438761e-05 
   66000    2.4443831 0.0022325272    284904.75    97695.925 8.4338601e-05 0.00043064331 2.0570114e-05 
   67000     2.451312 0.0022202829    284904.75    100517.62 -2.609802e-05 0.00034406473 7.0918323e-06 
   68000    2.4481139 0.0021809413    284904.75    103367.79 4.7445464e-05 0.00034008913 -2.6319976e-05 
   69000    2.4493065 0.0021767504    284904.75    106264.32 -1.1980255e-05 0.00040661235 -5.1405032e-07 
   70000      2.44569 0.0021903897    284904.75    109208.54 -2.5443541e-05 0.00028584893 -2.4164872e-06 
   71000    2.4471366 0.0021932698    284904.75     112204.7 -7.3203069e-05 0.00035621307 8.9176839e-06 
   72000    2.4445982 0.0022241294    284904.75    115228.46 -9.7088381e-05 0.00033945062 -1.3219613e-05 
   73000    2.4453541  0.002182797    284904.75    118267.95 -0.00018367444 0.00031854784 5.540488e-06 
   74000    2.4452745 0.0022076864    284904.75    121328.05 -0.00024070384 0.00028747548 4.3949615e-05 
   75000    2.4495305 0.0021886823    284904.75    124399.63 -0.00019611645 0.00033161737 3.5802924e-05 
   76000    2.4492035 0.0021790781    284904.75    127466.14 -0.00022401001 0.00027353257 4.1719758e-05 
   77000    2.4490247 0.0021933302    284904.75    130560.32 -0.00024244207 0.00028950288 7.1175766e-05 
   78000    2.4490404 0.0021981856    284904.75    133669.18 -0.00022152536 0.00028265882 6.7310125e-05 
   79000    2.4479645  0.002179665    284904.75    136822.91 -0.00029026827 0.00028222297 4.9612451e-05 
   80000    2.4506519 0.0021776222    284904.75    140014.58 -0.00025576775 0.00019381634 0.00010556441 
   81000    2.4504704 0.0022151966    284904.75    143155.05 -0.00046544142 0.00019629171 0.00022142472 
   82000    2.4458646 0.0021819358    284904.75    146260.86 -0.00051041914 0.00021144665 0.00025105278 
   83000    2.4476899 0.0021856558    284904.75    149406.27 -0.00055791583 0.0002376861 0.00024651183 
   84000    2.4543857 0.0021826349    284904.75    152598.65 -0.00051448025 0.00020721156 0.00019145304 
   85000    2.4473085 0.0021835995    284904.75     155823.5 -0.00033667576 0.00027029126 0.00027363958 
   86000    2.4456894 0.0022179134    284904.75    159050.19 -0.00034953412 0.00023438105 0.00032441757 
   87000    2.4469263 0.0021852132    284904.75    162288.42 -0.00034291312 0.00016980787 0.00039936845 
   88000    2.4574802 0.0021821528    284904.75    165579.73 -0.0003541002 0.00015642689 0.00037165849 
   89000    2.4519873 0.0022004256    284904.75    168859.27 -0.0002947949 9.7125423e-05 0.00043237457 
   90000    2.4492846 0.0021832883    284904.75    172090.76 -0.00029712691 0.00010776165 0.00041261031 
   91000    2.4495748 0.0021905922    284904.75    175386.05 -0.00029996104 0.00011759137 0.0004048033 
   92000    2.4517919 0.0022226499    284904.75    178700.75 -0.00035483048 7.6437574e-05 0.0004883561 
   93000    2.4540029 0.0021871608    284904.75    182050.25 -0.00025066761 0.00016910838 0.00040418483 
   94000    2.4491203 0.0021826615    284904.75    185420.49 -0.0001435253 0.00011810453 0.00036057151 
   95000    2.4554182 0.0021875898    284904.75     188814.9 -0.00016806405 0.00015041596 0.00038464602 
   96000    2.4524268 0.0021814526    284904.75    192250.94 -6.7559283e-05 0.00011328926 0.00039426563 
   97000    2.4506074 0.0021902674    284904.75    195709.58 -8.3244663e-05 0.00013202031 0.00038681375 
   98000     2.451316 0.0021853943    284904.75     199220.6 -7.1830648e-05 0.00014101744 0.00043225151 
   99000    2.4508969 0.0021898236    284904.75    202742.49 -0.00015716712 0.0001815968 0.00042777374 
  100000    2.4511775 0.0021857239    284904.75    206300.09 -0.00013250385 0.00018710496 0.00041858163 
  101000    2.4522912 0.0022108133    284904.75    209918.07 -0.00012706478 0.00021012796  0.000458174 
  102000    2.4492955 0.0021795412    284904.75     213519.9 -4.7420661e-05 0.00028591124 0.00041428234 
  103000    2.4483148 0.0021910601    284904.75    217145.43 -5.1755305e-05 0.00029663499 0.00040569699 
  104000    2.4511859 0.0021858847    284904.75    220835.82 5.1207671e-05 0.00028838498 0.00042941387 
  105000    2.4478466 0.0022366946    284904.75    224522.22 -4.5406527e-05 0.00033504046 0.00048956432 
  106000    2.4528671 0.0021847703    284904.75    228192.76 -1.1270916e-05 0.00033064914 0.00042231514 
  107000    2.4510506 0.0021816295    284904.75    231885.73 -6.823167e-05 0.00032281628 0.00047323297 
  108000    2.4418601 0.0022567326    284904.75    235609.51 6.789337e-05 0.00019683511 0.00016161211 
  109000    2.4489717 0.0021999087    284904.75     239315.4 -9.9075841e-05 0.00018557422 0.00036366341 
  110000     2.450651 0.0021887158    284904.75    243070.45 -0.00012647071 0.00019060575  0.000356984 
  111000    2.4474203 0.0021808293    284904.75    246847.73 -0.00010381603 0.00019600388 0.00030357518 
  112000    2.4481172 0.0021803968    284904.75    250668.91 -9.4768434e-05 0.00022162124 0.00029424229 
  113000    2.4499956 0.0021816636    284904.75    254513.07 -0.00010729323 0.00015732281 0.00031031832 
  114000    2.4486843 0.0021767508    284904.75    258348.17 -1.507621e-05 0.00012725206 0.00029233632 
  115000    2.4489878 0.0021774807    284904.75    262182.22 -0.00010540758 0.00024643943 0.0002900887 
  116000     2.449046 0.0021794677    284904.75    265943.86 -0.00015438836 0.00025057807 0.00026774349 
  117000    2.4453062 0.0021986941    284904.75    269669.22 -0.00016374031 0.00026538014 0.00021468312 
  118000    2.4461124 0.0021828072    284904.75    273439.53 -0.00010756355 0.00025858855 0.00023398788 
  119000     2.444267 0.0021835559    284904.75    277265.66 -0.00015083816 0.0003173837 0.00023974818 
  120000    2.4486519 0.0021824018    284904.75    281149.91 -0.00011751468 0.00029838087 0.0002224805 
  121000    2.4451083 0.0021807564    284904.75     285084.3 -0.00016373946 0.00025716289 0.00019078722 
  122000    2.4447475 0.0021824588    284904.75     289048.3 -0.00023499024 0.00029811527 0.00017040206 
  123000    2.4479388 0.0021912203    284904.75    293051.74 -0.00021367267 0.00026216378 0.0001868743 
  124000    2.4495786 0.0021815197    284904.75    297046.19 -0.00017474134 0.00027715039 0.00019042823 
  125000    2.4449326 0.0021965528    284904.75    301021.23 -0.00016860148 0.00034103156 0.00010758214 
  126000    2.4446416 0.0021842114    284904.75       305018 -0.00017954157 0.00032718219 0.00014175528 
  127000    2.4466193 0.0021898867    284904.75    309057.13 -0.00021098185 0.00030298668 0.00018758798 
  128000    2.4499294 0.0021871777    284904.75    313157.73 -0.00013905684 0.00028640664 0.00022396443 
  129000     2.443765 0.0021838132    284904.75    317316.05 -0.00015474644 0.00028296626 0.00019778793 
  130000    2.4462539 0.0022070866    284904.75    321529.86 -6.3652854e-05  0.000174154 0.00025826254 
  131000    2.4467899 0.0021812457    284904.75    325696.73 -9.8732453e-05 0.00023610248 0.00016818007 
  132000    2.4467612  0.002198221    284904.75    329662.43 -0.00021650652 0.00035970256 0.00031999344 
  133000    2.4453814 0.0021841605    284904.75    333663.64 -0.00022413579 0.00037503477 0.0003729201 
  134000    2.4455863 0.0021814074    284904.75    337724.65 -0.00020974292 0.00038585596 0.00038786279 
  135000    2.4472995 0.0021802456    284904.75    341816.78 -0.00021663877 0.00039314591 0.00036115179 
  136000    2.4455336 0.0021810973    284904.75    345883.42 -0.0001166326 0.00037874277 0.00032733809 
  137000    2.4469321  0.002193261    284904.75    349928.96 -0.00011805003  0.000412081 0.00039482707 
  138000    2.4459452 0.0021815935    284904.75    354000.26 -0.00012242532 0.0004023587 0.00041358785 
  139000    2.4496247 0.0021917092    284904.75    358060.81 -0.00017007405 0.00039898518 0.00048403605 
  140000    2.4466201  0.002185153    284904.75    362075.09 -0.00021332188 0.00038456336 0.00036617544 
  141000    2.4517923 0.0021766231    284904.75    366147.24 -0.00021524811 0.00043157144 0.00037362776 
  142000    2.4451554 0.0021819498    284904.75    370155.99 -0.00023273703 0.00041934456 0.00036729015 
  143000    2.4492214 0.0021759023    284904.75    374090.53 -0.00026211525 0.00028288293 0.00032265788 
  144000    2.4469504 0.0021800784    284904.75    378007.78 -0.00026863336 0.00022604549 0.00038037122 
  145000    2.4476235 0.0021881125    284904.75    381855.05 -0.00021363617 0.0001983386 0.00029314987 
  146000    2.4490889  0.002196812    284904.75     385643.6 -0.00019840347 0.00020915367 0.0003610076 
  147000    2.4469613 0.0021855292    284904.75    389498.65 -0.00021906647 0.00017601199 0.00029070261 
  148000    2.4478251  0.002193922    284904.75    393425.79 -0.0001092796 0.00017673133 0.00034078026 
  149000    2.4442827 0.0021829444    284904.75    397350.47 7.1720842e-05 0.00028392314 0.00047301162 
  150000    2.4482751 0.0021782905    284904.75    401297.37 0.00019355393 0.00028277206 0.00047606948 
  151000    2.4472776 0.0021811583    284904.75    405293.98 0.0002247162 0.0002663396 0.00046979711 
  152000    2.4466219  0.002180351    284904.75    409316.72 0.00025363481 0.00024562457 0.00047495812 
  153000    2.4470831 0.0021820684    284904.75    413361.75 0.00026776071 0.0001761024 0.00049052126 
  154000    2.4503958 0.0021898828    284904.75    417415.87 0.00036011525 0.00015376426 0.00042704235 
  155000      2.44619 0.0021955307    284904.75    421506.23 0.00035407383 0.0001737477 0.0003751311 
  156000    2.4448302 0.0021815441    284904.75    425494.84 0.00037264273 0.00021939665 0.00027429595 
  157000    2.4456349 0.0021809462    284904.75    429337.18 0.00041101805 0.00016975744 0.00023820297 
  158000    2.4427469 0.0021854064    284904.75    433198.35 0.00043285931 0.00016437505 0.00021869937 
  159000    2.4429846 0.0021843185    284904.75    437099.41 0.00043755592 0.00013931585 0.00029331487 
  160000    2.4435726 0.0021841822    284904.75    440992.56 0.00042415166 0.00013277644 0.00028742218 
  161000    2.4477677 0.0021786252    284904.75    444944.44 0.00043337112 0.00012764675 0.0002798913 
  162000    2.4470933 0.0022066677    284904.75    448939.59 0.00045873203 0.00011036406 0.00021181963 
  163000    2.4437253 0.0021834989    284904.75     452966.7 0.00044587573 0.00011518239 0.00022543007 
  164000     2.444461 0.0021820272    284904.75    457005.91 0.00054139127 0.00018007166 0.00022393281 
  165000    2.4458857 0.0022024161    284904.75    461113.51 0.00056923091 0.00029910001 0.00010467365 
  166000    2.4477495 0.0021893188    284904.75    465215.15 0.00057006636 0.00028892027 0.00013976752 
  167000    2.4491926 0.0021792111    284904.75    469343.01 0.00049688027 0.00029968006 -7.2195523e-05 
  168000    2.4432321  0.002184477    284904.75    473321.21 0.00054963722 0.00026836906 -0.00012442091 
  169000    2.4441903   0.00218246    284904.75    477352.65 0.00056184946 0.0003040293 -0.00011991172 
  170000    2.4471859 0.0021853089    284904.75    481365.74 0.00054895248 0.00029331102 -0.00013931973 
  171000    2.4466018 0.0021853059    284904.75    485331.59 0.00053136206 0.00033019121 -8.483144e-05 
  172000    2.4452822 0.0021808819    284904.75     489296.3 0.0005523777 0.00034033573 -9.6230163e-05 
  173000    2.4453645 0.0021987363    284904.75    493294.55 0.0005107195 0.00019717109 -8.8058751e-05 
  174000    2.4430444 0.0021848091    284904.75     497303.2 0.00046538967 0.00017489605 -8.6404949e-05 
  175000    2.4435398 0.0021838136    284904.75    501354.29 0.00057000244 0.00013046423 -6.6298673e-05 
  176000    2.4506331 0.0021815336    284904.75    505469.93 0.00055869317 0.00013004701 -8.6389758e-05 
  177000    2.4472897 0.0021841033    284904.75     509556.9 0.0005520856 4.3685821e-05 1.9323184e-05 
  178000    2.4444692 0.0021822242    284904.75    513481.62   0.00051889 6.6450972e-05 3.6197756e-05 
  179000    2.4435897 0.0021838156    284904.75    517452.89 0.00050836957 7.5694982e-05 1.0746535e-05 
  180000    2.4447222 0.0021990762    284904.75    521394.36 0.00044721964 0.00013557636  8.37206e-06 
  181000    2.4482305 0.0021774104    284904.75    525241.11 0.00049051467 0.00017434373 -0.00015611084 
  182000    2.4427619 0.0021853877    284904.75    529052.75 0.00039929698 2.8557865e-05 -9.4827456e-05 
  183000    2.4440064 0.0021828785    284904.75    532919.03 0.00034851744 5.8057395e-06 -7.7816614e-05 
  184000    2.4437395  0.002182961    284904.75    536744.03 0.00037173593 1.1286858e-05 -8.4221541e-05 
  185000    2.4455927 0.0021816759    284904.75    540563.98 0.00034257679 -3.7800602e-05 -0.00010920166 
  186000    2.4473244 0.0021802916    284904.75    544388.64 0.00032792831 -8.0989678e-05 -0.00021219717 
  187000     2.444054 0.0021827669    284904.75    548047.95 0.00029525352 -8.7947177e-05 -0.00023874813 
  188000    2.4456256   0.00219792    284904.75    551632.53 0.00020436492 -2.2207766e-05 -0.00013850509 
  189000    2.4451352 0.0022135492    284904.75    555181.84 0.0002806776 -0.00018452199 -4.404944e-05 
  190000     2.443234 0.0021841241    284904.75    558744.16 0.00028593801 5.6440963e-05 -0.00020202389 
  191000    2.4450607 0.0022033449    284904.75    562326.69 0.0002729824 4.5563413e-05 -0.00018004811 
  192000    2.4484287 0.0021914892    284904.75    565791.61 0.00026795494 3.0230919e-05 -0.0001444234 
  193000    2.4427955 0.0021851146    284904.75    569175.54 0.00030980347 2.9640858e-05 -0.00018479945 
  194000    2.4455915 0.0021901896    284904.75    572634.82 0.0002876349 7.6726465e-06 -0.00016578957 
  195000    2.4426896 0.0021854103    284904.75    575983.61 0.00026122384 -2.5532904e-06 -7.0187344e-05 
  196000    2.4443878 0.0021824567    284904.75     579229.1 0.00020979955 -2.9930522e-05 -5.8672885e-05 
  197000    2.4449693   0.00218116    284904.75    582464.14 0.00018591396 -1.0737081e-05 -9.3092969e-05 
  198000    2.4437331 0.0021835733    284904.75    585786.17 3.2014934e-05 0.00010400354 -5.3252622e-05 
  199000     2.445278 0.0021837553    284904.75    589185.47 3.8371974e-05 0.00013155446 -9.3532211e-05 
  200000    2.4460852 0.0021822852    284904.75    592555.52 6.9425477e-06 3.9583621e-05 -3.4093329e-05 
  201000    2.4484358 0.0021824363    284904.75    595943.37 -2.6667544e-05 -2.3478871e-06 -7.1961262e-05 
  202000    2.4451848 0.0021877073    284904.75    599335.75 -2.2649046e-05 4.3278545e-05 -0.00014430205 
  203000    2.4457115 0.0021888676    284904.75    602722.95 -5.4049114e-05 6.2273483e-05 -0.00014497721 
  204000    2.4461644 0.0021821246    284904.75       606102 -8.7409913e-05 8.8470006e-06 -3.4371783e-05 
  205000    2.4367442 0.0022537442    284904.75    609442.31 -3.1123881e-05 6.2403602e-05 -6.598983e-06 
  206000    2.4463881 0.0021817485    284904.75    612695.61 -8.4022164e-06 5.0080945e-05 -0.00010895436 
  207000    2.4477892 0.0021998178    284904.75    615832.15 -5.3282458e-05 2.9041475e-05 -9.3498848e-05 
  208000    2.4482471 0.0021912457    284904.75    618997.33 3.3708617e-06 4.0783579e-06 -3.4328633e-05 
  209000    2.4450161 0.0021811457    284904.75    622203.99 -2.8044309e-06 -8.4351872e-05 -0.00012172485 
  210000    2.4468262 0.0021799613    284904.75    625453.66 -0.00014437865 -0.00033755264 -0.00012125428 
  211000    2.4436532 0.0021836811    284904.75    628675.85 -4.3395944e-05 -0.00027230567 -1.2029208e-05 
  212000    2.4464301 0.0021802751    284904.75    631963.62 3.4532198e-05 -0.00034658279 6.4911659e-05 
  213000    2.4468227 0.0021977559    284904.75    635191.13 7.1296637e-05 -0.00046275909 0.00021524283 
  214000    2.4470369 0.0021871273    284904.75    638456.61 8.6764165e-05 -0.00049181459 0.00015418465 
  215000    2.4481074 0.0021900842    284904.75    641787.56 0.00012814805 -0.00049735622 0.00016157209 
  216000    2.4463628 0.0022015579    284904.75    645185.84 0.00016092993 -0.00047400467 0.00011412933 
  217000     2.445997 0.0021815022    284904.75    648604.06  0.000130711 -0.00047833227 0.00010491272 
  218000    2.4488597 0.0021828788    284904.75     652071.4 0.00015824462 -0.00047797608 0.00020592114 
  219000    2.4427693 0.0021852723    284904.75    655531.06 3.8478691e-05 -0.00037814949 0.00018094778 
  220000    2.4507985 0.0021871951    284904.75    659017.91 4.5281403e-05 -0.00039639658 0.00013559364 
  221000    2.4450137 0.0021923246    284904.75     662490.2 4.5889153e-06 -0.00037878845 0.00010443174 
  222000    2.4456476 0.0022056335    284904.75    666008.16 8.0007099e-06 -0.00032573438 0.00017332741 
  223000     2.443694 0.0021832013    284904.75    669534.56 -0.00011370293 -0.00030232753 0.00010597835 
  224000    2.4480096 0.0021852528    284904.75    673090.37 -0.00018070538 -0.00025828201 0.00015189892 
  225000     2.445491 0.0021803917    284904.75    676663.22 -0.00016209225 -0.00030977499 8.0344204e-05 
  226000    2.4459126 0.0021930406    284904.75    680124.13 -0.00015549816 -0.00027722773 4.3530184e-05 
  227000      2.44365 0.0021833266    284904.75    683606.23 -9.9894531e-05 -0.00028889708 4.1966312e-05 
  228000     2.444226 0.0021829499    284904.75    687021.23 -5.9335523e-05 -0.00026835788 -1.5878196e-05 
  229000    2.4449063 0.0021824613    284904.75    690423.31 -0.00013036071 -0.00037491017 3.6756831e-05 
  230000    2.4446484 0.0021814107    284904.75    693862.33 -0.00010735116 -0.00036094506 6.5210742e-05 
  231000    2.4445526 0.0021819243    284904.75    697291.96 9.500149e-06 -0.00045900573 5.5886718e-05 
  232000    2.4461877 0.0021814897    284904.75    700728.24 -2.4254277e-05 -0.00045894267 2.183785e-06 
  233000    2.4472982 0.0021941704    284904.75    704240.97 -2.9121974e-05 -0.00044444455 6.0286567e-05 
  234000    2.4442656 0.0021837969    284904.75    707752.14 -3.2416223e-05 -0.00046890455 5.3568451e-05 
  235000    2.4452164 0.0021857294    284904.75    711314.37 -5.1096959e-05 -0.00047062805 6.6521672e-05 
  236000     2.447201 0.0021802816    284904.75    714939.43 -5.5260099e-05 -0.00047159568 9.253922e-05 
  237000    2.4450664 0.0021833713    284904.75     718598.3 0.00010149871 -0.00037625912 -8.8004935e-05 
  238000    2.4440906 0.0021829152    284904.75    722401.61 0.00013163162 -0.0002171731 -0.00025557471 
  239000    2.4438117 0.0021835731    284904.75    726235.34 3.4897274e-05 -0.0001754339 -0.00031787165 
  240000    2.4459168 0.0022010142    284904.75     730077.8 6.7100345e-05 -0.00025138298 -0.00031606903 
  241000     2.444254 0.0021837021    284904.75    733877.52 9.3970767e-05 -0.00025902682 -0.00018841455 
  242000    2.4466132 0.0021800425    284904.75    737724.68 5.8734033e-05 -0.00028948642 -0.00018658384 
  243000    2.4497263 0.0021807103    284904.75    741594.95 -9.5839326e-06 -0.00032237004 -0.00020338875 
  244000    2.4452314 0.0021819668    284904.75    745457.39 3.7006973e-05 -0.00018590208 -0.00016884883 
  245000    2.4445895 0.0021988888    284904.75    749375.87 0.00017633083 -0.00027974046 -0.00024316106 
  246000    2.4448777 0.0021953386    284904.75    753393.41 0.00020431169 -0.0002561086 -0.0002161645 
  247000    2.4428548 0.0021853516    284904.75       757514 0.00015948648 -0.00027619748 -0.00019475212 
  248000    2.4435824 0.0021840877    284904.75       761656 0.00015349948 -0.00029541491 -0.0002114762 
  249000    2.4435572 0.0021832346    284904.75     765798.5 0.00018105649 -0.00035035624 -0.00022025722 
  250000    2.4408716 0.0022394278    284904.75    769912.42 0.00015726066 -0.00028741211 -0.00020257472 
  251000    2.4475039 0.0021809106    284904.75    773989.78 0.00011141338 -0.00036147612 -0.0002717131 
  252000    2.4488197 0.0021862173    284904.75    778105.66 0.00010295596 -0.00039537538 -0.00031159935 
  253000     2.445169 0.0021813926    284904.75    782260.88 0.00016413102 -0.00036548681 -0.00035375021 
  254000    2.4437766 0.0021835815    284904.75    786487.65 0.00018897845 -0.0003661984 -0.00034645464 
  255000    2.4475913 0.0021800231    284904.75     790767.8 0.00017061526 -0.00037376257 -0.00042223017 
  256000    2.4444597 0.0021822096    284904.75    795057.47 0.00019573812 -0.00040729161 -0.00041880833 
  257000    2.4449047  0.002182576    284904.75    799429.43 0.00020624007 -0.00039516579 -0.0003665081 
  258000    2.4490678 0.0021856363    284904.75    803777.62 0.00015603719 -0.00038053705 -0.00037836643 
  259000    2.4475712 0.0021887866    284904.75     808164.9 0.00025377768 -0.00033913657 -0.00043279339 
  260000    2.4455991 0.0021825469    284904.75    812505.58 0.00021905057 -0.00052475193 -0.00036312565 
  261000    2.4427703 0.0021849291    284904.75    816923.83 0.00025698553 -0.00049460837 -0.00032620804 
  262000    2.4431554 0.0021845203    284904.75    821334.51 0.00021607527 -0.000514652 -0.00028932188 
  263000    2.4454731 0.0021996083    284904.75    825773.04 0.00022594579 -0.00055032551 -0.00031961062 
  264000    2.4449127 0.0022048469    284904.75    830083.83 0.00020991372 -0.00046248093 -0.00044665638 
  265000    2.4440947 0.0021829031    284904.75    834414.04 0.0001908027 -0.00032193176 -0.00016856991 
  266000    2.4429049 0.0021851579    284904.75    838787.63 0.00017492429 -0.000268977 -0.00018919821 
  267000    2.4443018 0.0021825713    284904.75    843209.95 0.0001853915 -0.00025653424 -0.00012717879 
  268000    2.4390576 0.0022407016    284904.75    847694.47 0.00017121712 -0.00029202493 7.2444365e-05 
  269000    2.4423034 0.0022274623    284904.75     852262.6 -3.6996372e-05 -0.0002011177 -0.00034677884 
  270000    2.4460769 0.0021859157    284904.75    856881.39 0.00015759743 -0.00023780034 -0.00022681083 
  271000    2.4457732 0.0021820606    284904.75    861511.83 0.00016219617 -0.00023030411 -0.00023117337 
  272000    2.4457267 0.0021802769    284904.75    866169.06 0.00019978164 -5.5218685e-05 -0.00013272946 
  273000    2.4454531 0.0021869783    284904.75    870891.65 0.00019206026 -7.9871775e-05 -0.00014464703 
  274000    2.4446439 0.0022021205    284904.75    875660.57 0.00021809337 -6.9336999e-05 -0.0001532764 
  275000     2.443188 0.0021845899    284904.75    880415.24 0.00025184444 -3.6108034e-05 -9.7771226e-05 
  276000    2.4472728 0.0021823359    284904.75    885164.44 0.00030113417 -1.2005884e-05 -0.00010817167 
  277000    2.4442081 0.0021824488    284904.75    889931.43 0.00036097582 -2.9768978e-05 -0.00013047098 
  278000    2.4496269 0.0021784247    284904.75    894505.49 0.00047200189 1.2809548e-05 -2.7997466e-05 
  279000    2.4447982 0.0022261837    284904.75     898963.4 0.00050677808 -1.979365e-05 -9.5239805e-05 
  280000    2.4475015 0.0021824079    284904.75    903486.03 0.00041753377 -2.0050186e-05 -2.1685832e-05 
  281000     2.447585 0.0021821558    284904.75    907992.86 0.00042749219 -2.4694329e-05 -2.6307684e-05 
  282000    2.4451006 0.0021915999    284904.75     912470.2 0.00044807601 -4.4387417e-05 -1.3854748e-05 
  283000    2.4463076   0.00218053    284904.75    917007.09 0.00043617073 -5.8294344e-05 3.1216712e-05 
  284000    2.4459555 0.0021812537    284904.75    921563.42 0.0004467492 -4.2072649e-05 1.9559195e-05 
  285000    2.4453042 0.0021829387    284904.75    926151.17 0.00047746078 -4.6773971e-05 1.2204957e-05 
  286000     2.443454 0.0021837934    284904.75    930695.49 0.00047345916 -7.6595715e-05 4.3683459e-05 
  287000    2.4449856 0.0021815021    284904.75    935169.79 0.0004846035 -2.8480885e-05 -1.9727049e-05 
  288000    2.4453261 0.0021813545    284904.75    939596.17 0.00056629664 -0.00010971248 1.1907395e-05 
  289000    2.4438483   0.00218332    284904.75    943983.55 0.00054986356 -4.5614032e-05 -6.2231512e-05 
  290000    2.4530933 0.0021942882    284904.75    948416.75 0.00062113332 4.5690071e-06 -9.0629503e-05 
  291000    2.4445335 0.0022019576    284904.75    952863.85 0.00061935621 1.8866703e-05 -3.3398243e-05 
  292000    2.4434831 0.0021840868    284904.75    957287.58 0.00057529776 6.191239e-05 2.549529e-05 
  293000    2.4436172 0.0021835807    284904.75    961729.78 0.00063739075 3.2150628e-05 5.9766284e-05 
  294000    2.4443043  0.002183165    284904.75    966188.97 0.00068517936 3.2742699e-05 4.6746194e-05 
  295000     2.447145 0.0022051343    284904.75    970677.04 0.00062867173 3.9447551e-06 -3.8621296e-06 
  296000    2.4441792 0.0021833301    284904.75    975241.23 0.00066552846 2.1592314e-05 5.737831e-05 
  297000    2.4462644 0.0021792549    284904.75    979872.06 0.00067544647 3.532476e-05 1.2554229e-05 
  298000    2.4451829 0.0021807122    284904.75    984442.59 0.00057347839 7.1674042e-05 1.7931638e-05 
  299000    2.4450188 0.0021811616    284904.75    988922.72 0.00047278606 -8.0920675e-05 -0.00024666324 
  300000    2.4446406 0.0021984755    284904.75    993399.71 0.00048640378 -6.5835894e-05 -0.00023626582 
  301000    2.4445794 0.0021824302    284904.75    997975.31 0.00047257422 -6.473673e-05 -0.00017900329 
  302000    2.4506821 0.0021783644    284904.75    1002625.9 0.00048449242 -3.3642176e-05 -0.00020270791 
  303000    2.4472075 0.0021778546    284904.75    1007193.6 0.00057600903 -0.0001605054 -0.00022899964 
  304000    2.4453974 0.0021833788    284904.75    1011733.1 0.00064407805 -0.00015668949 -0.00039512846 
  305000    2.4450755 0.0021819121    284904.75    1016244.9 0.00061678313 -0.00014093195 -0.00039040077 
  306000    2.4428017 0.0021851275    284904.75      1020779 0.00061163964 -0.00017467387 -0.00043176139 
  307000     2.443261  0.002184138    284904.75    1025321.6 0.00059825223 -0.00018555337 -0.00042891698 
  308000    2.4446626 0.0021825945    284904.75      1029812 0.00063739001 -6.480938e-05 -0.00055228503 
  309000    2.4460878 0.0021817486    284904.75    1034339.4 0.00067230713 -7.4958679e-05 -0.00054600879 
  310000    2.4439925 0.0021830387    284904.75    1038877.6 0.00068836597 -0.0001358573 -0.00046917069 
  311000    2.4462667 0.0021840812    284904.75    1043506.4 0.0006374307 3.4815954e-05 -0.00041653819 
  312000     2.442769 0.0021854142    284904.75    1048200.7 0.00059188873 -5.5272243e-06 -0.00042678169 
  313000    2.4427282 0.0021852551    284904.75    1052903.9 0.00057686936 -6.4990113e-05 -0.00038023475 
  314000    2.4498825 0.0021860977    284904.75    1057534.3 0.00060259221 -3.6963842e-05 -0.00039453544 
  315000    2.4512239 0.0021777772    284904.75    1062138.4 0.00057357845 -9.4541261e-05 -0.00044574498 
  316000    2.4458882 0.0021854551    284904.75      1066718 0.00057028018 -0.00011129794 -0.00046085541 
  317000    2.4470976 0.0021816719    284904.75    1071280.3 0.00045735697 -0.00021788731 -0.00043277719 
  318000    2.4457848 0.0021844625    284904.75    1075835.4 0.00038987677 -0.00015708124 -0.00040200859 
  319000    2.4479177 0.0021841118    284904.75    1080392.1 0.00042523868 -0.00016458154 -0.00039071408 
  320000     2.447359  0.002179039    284904.75    1084989.5 0.00042027216 -0.00015882404 -0.00043033558 
  321000    2.4459676 0.0021819808    284904.75    1089628.8 0.00038884323 -0.00015844041 -0.00033810084 
  322000     2.445333 0.0021925297    284904.75    1094241.2 0.00039755014 -0.00021041047 -0.00029135167 
  323000    2.4492751 0.0021984721    284904.75    1098859.3 0.00041898385 -0.00021203024 -0.00030556277 
  324000    2.4449637 0.0021825154    284904.75    1103504.1 0.00038911467 -0.00019485023 -0.00034233577 
  325000    2.4469556 0.0022195678    284904.75      1108184 0.0003778832 -0.00029622678 -0.00034969439 
  326000    2.4485466 0.0021875556    284904.75    1112840.5 0.00041565886 -0.00011197662 -0.00047479988 
  327000    2.4462349 0.0021796618    284904.75    1117314.1 0.00040845028 4.7813915e-05 -0.00049169072 
  328000    2.4489414 0.0021875988    284904.75    1121825.5  0.000445129 -2.0017733e-06 -0.00047249341 
  329000    2.4465327  0.002181584    284904.75    1126345.8 0.00044368457 4.5878312e-06 -0.000471279 
  330000     2.444693 0.0021824392    284904.75    1130943.5 0.00039009807 3.0793787e-05 -0.00048785063 
  331000    2.4480396  0.002196511    284904.75    1135663.6 0.00031018051 7.2198896e-06 -0.00043966704 
  332000    2.4481452 0.0022053522    284904.75    1140452.2 0.00036168018 1.8439472e-05 -0.00045621507 
  333000    2.4441239 0.0021839482    284904.75    1145410.7 0.00033826022 -2.2307569e-07 -0.00045091066 
  334000    2.4450682 0.0022159978    284904.75    1150381.8 0.00039290659 5.5427143e-05 -0.00049757639 
  335000    2.4465333 0.0021827922    284904.75    1155373.7 0.00033046223 9.974692e-05 -0.00049585162 
  336000    2.4187241 0.0023785703    284904.75    1160405.6 0.00071377462 0.00030659828 -0.00050319784 
  337000    2.4443708 0.0021818535    284904.75    1165020.3 0.00028148915 2.1632306e-05 -0.00044802493 
  338000    2.4427635 0.0021856482    284904.75    1169562.2 0.00032176417 -8.6600111e-05 -0.00044699055 
  339000    2.4463058  0.002179651    284904.75    1174017.7 0.00030666408 -5.2920787e-05 -0.00042312157 
  340000    2.4465668 0.0021817767    284904.75    1178344.6 0.00019964625 2.4574072e-05 -0.00044411843 
  341000    2.4490418 0.0021813957    284904.75    1182696.5 0.00019830003 4.182933e-05 -0.00047457734 
  342000    2.4487268 0.0021790675    284904.75    1187025.9 0.00027276855 -0.00012623281 -0.00046098692 
  343000    2.4432892 0.0021844355    284904.75    1191454.2 0.00027447039 -7.9831599e-05 -0.00049459633 
  344000    2.4455162 0.0021852545    284904.75    1195944.8 0.00028214093 -7.0541497e-05 -0.00048940109 
  345000    2.4428761 0.0021849795    284904.75    1200465.5 0.00029844515 -0.00010296998 -0.0004546961 
  346000    2.4456844 0.0021814204    284904.75    1205013.8 0.00031390659 -0.00017337037 -0.00045846039 
  347000    2.4502981 0.0021764985    284904.75      1209593 0.00037174811 -0.00018056886 -0.00039588156 
  348000    2.4478868 0.0021823168    284904.75    1214210.3 0.00038197304 -0.00020311986 -0.00040553056 
  349000    2.4494762 0.0021860814    284904.75    1218859.1 0.00041186889 -0.00018068299 -0.00041100261 
  350000    2.4440747 0.0021825679    284904.75    1223324.5 0.00055577357 -0.00021028166 -0.00048548284 
  351000    2.4454521 0.0021807427    284904.75    1227572.8 0.00052386733 -0.00025518878 -0.00048579706 
  352000    2.4480933 0.0021808085    284904.75    1231876.9 0.00049761861 -0.00022896061 -0.00046679521 
  353000    2.4467374 0.0021796481    284904.75    1235975.1 0.00053572009 -0.00017580448 -0.00051385744 
  354000    2.4443318 0.0021828866    284904.75    1240080.6 0.00050005651 -0.00013895366 -0.00046853505 
  355000    2.4451801 0.0021815022    284904.75    1244233.8 0.00049212769 -0.00013687173 -0.00043225318 
  356000    2.4452179 0.0021987418    284904.75    1248381.9 0.00046318999 -0.00021782218 -0.00041717799 
  357000    2.4502135 0.0021957982    284904.75      1252621 0.00053871207 -0.00029732104 -0.00031463364 
  358000    2.4479578 0.0022028918    284904.75    1256867.8 0.00036780457 -0.00021559466 -0.00030632137 
  359000    2.4523804 0.0022095273    284904.75    1261193.2 0.00051631025 -0.00033969956 -0.00021612083 
  360000    2.4451853 0.0021885597    284904.75    1265459.4 0.00042049756 -0.00029950365 -0.0001594017 
  361000    2.4454486  0.002197807    284904.75    1269769.7 0.00044853073 -0.00026464133 -0.00017115673 
  362000    2.4470635 0.0021794582    284904.75      1274067 0.00049731194 -0.00032621824 -0.00020374546 
  363000    2.4442524 0.0021833951    284904.75      1278483 0.0005049858 -0.00031126597 -0.00023376643 
  364000    2.4445601 0.0021821605    284904.75    1282942.4 0.00053698984 -0.00032014904 -0.00029518347 
  365000    2.4428153  0.002185299    284904.75    1287418.1 0.00054978366 -0.00033568296 -0.0003534251 
  366000    2.4461996 0.0021805226    284904.75    1291914.8 0.00047320155 -0.00035604349 -0.0003091527 
  367000    2.4454457 0.0021812449    284904.75    1296360.6 0.00045475533 -0.00035422558 -0.00036276797 
  368000    2.4488404 0.0021899292    284904.75    1300648.7 0.00046060669 -0.00036745868 -0.00036060508 
  369000     2.445611 0.0021798212    284904.75    1304895.2 0.00037820199 -0.00041915109 -0.00041360315 
  370000    2.4432283 0.0021846314    284904.75    1309117.2 0.00037451894 -0.0003678993 -0.00036540819 
  371000    2.4469387 0.0021833583    284904.75    1313403.4 0.00037765685 -0.00037266979 -0.00038595358 
  372000    2.4458004 0.0021971812    284904.75    1317627.3 0.00031489902 -0.00044482584 -0.00041850985 
  373000    2.4445037   0.00218214    284904.75      1321846 0.00041775341 -0.00039838965 -0.00041502227 
  374000    2.4434201 0.0021840794    284904.75    1325945.5 0.00041736224 -0.00039580462 -0.00040253628 
  375000    2.4437423 0.0022079535    284904.75    1330032.5 0.00034338984 -0.00030181226 -0.0004238552 
  376000    2.4435999 0.0021837732    284904.75    1334117.5 0.0004290875 -0.00046474215 -0.00041193571 
  377000    2.4480975 0.0021853622    284904.75    1338207.7 0.00033557389 -0.00037524405 -0.00046870187 
  378000    2.4448118  0.002183732    284904.75    1342365.9 0.00022205747 -0.00044935622 -0.0004603655 
  379000    2.4464632 0.0021797026    284904.75    1346598.9 0.00025280741 -0.00041177949 -0.00038818575 
  380000    2.4447354  0.002182732    284904.75    1350852.7 0.00022878232 -0.00037740716 -0.00038373395 
  381000    2.4468067 0.0021827855    284904.75    1355124.5 0.00020245854 -0.0003951485 -0.00038908253 
  382000    2.4463559 0.0021973469    284904.75    1359341.4 0.00014604488 -0.00035081388 -0.00041340244 
  383000    2.4439325 0.0021836061    284904.75    1363358.9 0.00012931122 -0.00025782046 -0.0003996887 
  384000    2.4448976 0.0021814227    284904.75    1367424.5 9.7204338e-05 -0.000347733 -0.00056990891 
  385000    2.4482216 0.0021803348    284904.75    1371554.7 7.1482874e-05 -0.00041396079 -0.00059510089 
  386000    2.4288461 0.0023023105    284904.75    1375749.1 -9.2782303e-05 -0.00048368486 -0.00068243884 
  387000    2.4459763 0.0021964184    284904.75    1380023.1 0.00026721006 -0.00026356534 -0.00059942577 
  388000    2.4482971 0.0021890511    284904.75    1384143.5 0.00018743373 -0.00029929047 -0.00060410113 
  389000    2.4438476 0.0021832228    284904.75    1388281.4 0.00022423432 -0.00028773388 -0.00062051771 
  390000    2.4445303 0.0021821435    284904.75    1392432.9 0.00020302753 -0.00026903505 -0.00061621783 
  391000    2.4428906 0.0021848309    284904.75    1396560.7 0.00021657482 -0.00023333653 -0.00064282217 
  392000    2.4446383  0.002182621    284904.75    1400655.1 0.00023422366 -0.00033596585 -0.00068501465 
  393000    2.4453321 0.0021810349    284904.75    1404608.5 0.0003387373 -0.00051673018 -0.00065697568 
  394000    2.4383766 0.0022556271    284904.75    1408501.9 0.00038346882 -0.00052740759 -0.00066905376 
  395000    2.4444221 0.0021818089    284904.75    1412524.9 0.00025666988 -0.00052018215 -0.00064531026 
  396000    2.4453307  0.002185775    284904.75    1416689.1 0.00026458545 -0.00052010878 -0.00064327996 
  397000    2.4497287 0.0021836834    284904.75    1420908.9 0.00027114048 -0.00050058916 -0.00059422241 
  398000    2.4459988 0.0021808329    284904.75    1425157.8 0.00019399072 -0.00045806365 -0.00050555589 
  399000    2.4465225 0.0021827133    284904.75    1429382.3 0.00017917237 -0.00030442048 -0.0005574249 
  400000    2.4467006 0.0021881273    284904.75    1433620.1 0.00013170889 -0.00032696535 -0.00059935685 
  401000    2.4431067 0.0021848286    284904.75    1437836.1 2.7002879e-05 -0.00033960096 -0.00053172174 
  402000     2.447618 0.0021882039    284904.75    1442073.3 0.0001216814 -0.00030782922 -0.0005438006 
  403000    2.4495421 0.0021781526    284904.75    1446266.4 0.0001547397 -0.00035578382 -0.00065608657 
  404000    2.4485877 0.0021759518    284904.75    1450369.9 9.6152745e-05 -0.00027911234 -0.00056806794 
  405000    2.4453782 0.0021812588    284904.75    1454474.2 6.5813174e-05 -0.00020829267 -0.00063758341 
  406000    2.4431197 0.0021846996    284904.75    1458582.5 6.2956559e-05 -0.00021371607 -0.00062157929 
  407000    2.4447869 0.0021820814    284904.75    1462740.2 5.5078722e-05 -0.00020959411 -0.00062996262 
  408000    2.4467243 0.0021797424    284904.75    1466915.9 7.4337498e-05 -0.00019190651 -0.0006074692 
  409000    2.4432485 0.0021842772    284904.75    1471007.2 8.6782686e-05 -0.00014709809 -0.00054668465 
  410000    2.4442216 0.0021826942    284904.75    1474946.9 5.2545123e-05 -0.00011617627 -0.00054351029 
  411000    2.4451225 0.0021885197    284904.75    1478883.1 -0.00022004687 -0.0001788651 -0.00059320303 
  412000    2.4469582 0.0021901534    284904.75    1482795.2 -0.00030337473 -0.00019376553 -0.00061433146 
  413000    2.4438428  0.002183306    284904.75    1486740.8 -0.0003380951 -0.00018636959 -0.00059385412 
  414000    2.4284854 0.0023288029    284904.75    1490535.1 0.0002423235 -0.00064881264 -0.00066067873 
  415000    2.4443352 0.0021826893    284904.75      1494067 -0.0001804793 -0.00020600445 -0.00065193524 
  416000    2.4435728 0.0021837678    284904.75    1497603.9 -0.00022896196 -0.00021952919 -0.00063286699 
  417000     2.446976 0.0021803346    284904.75    1501109.6 -0.00032314287 -0.00023701692 -0.00063256841 
  418000    2.4455255 0.0021809798    284904.75    1504626.9 -0.00034583904 -0.00025928097 -0.00059802908 
  419000    2.4474039 0.0021849504    284904.75    1508209.4 -0.00031762452 -0.00024198742 -0.00061512577 
  420000    2.4473939 0.0021853829    284904.75    1511867.6 -0.00029557662 -0.00019169736 -0.00059929096 
  421000    2.4517043 0.0021839528    284904.75    1515554.8 -0.00029462168 -0.00019410752 -0.00063122394 
  422000    2.4451317 0.0021815178    284904.75    1519302.7 -0.00027145233 -0.00016398211 -0.00064614436 
  423000    2.4462071 0.0021809796    284904.75    1523085.1 -0.00024008552 -0.00015887375 -0.00063216545 
  424000    2.4439446 0.0021829891    284904.75    1526880.1 -0.00026152521 -0.00020720795 -0.0006237486 
  425000    2.4470261 0.0021800184    284904.75      1530696 -0.00026694444 -0.00024795409 -0.00064976088 
  426000    2.4461196  0.002182888    284904.75    1534563.5 -0.00020615519 -0.00023323714 -0.00067192615 
  427000    2.4445561 0.0021828657    284904.75    1538421.7 -0.00013870857 -0.00028178233 -0.00069353683 
  428000    2.4430401 0.0021849258    284904.75    1542214.3 -0.00011810045 -0.00025707853 -0.00078132741 
  429000    2.4449684 0.0021825251    284904.75    1546015.1 -9.1068649e-05 -0.00020603743 -0.00078969612 
  430000    2.4554808 0.0021847263    284904.75    1549625.9 -7.4683493e-05 -0.00015938456 -0.00066258802 
  431000    2.4464609 0.0021797382    284904.75    1553203.6 -9.8131539e-05 -0.0001318607 -0.00063275541 
  432000    2.4427696 0.0022360958    284904.75    1556754.9 -7.1919977e-05 -0.00015103866 -0.0006585222 
  433000    2.4446734 0.0021827929    284904.75    1560320.1 -0.00011156522 -7.3742358e-05 -0.00075873347 
  434000    2.4456378 0.0021809602    284904.75    1563867.2 -0.00017721379 -2.5422745e-05 -0.00078163651 
  435000    2.4432495 0.0021845265    284904.75    1567264.2 -0.00023411935 -9.4929775e-05 -0.00077543557 
  436000    2.4481167 0.0021859747    284904.75    1570614.4 -0.00016085245 -0.00014054792 -0.00057785628 
  437000    2.4459892 0.0021806964    284904.75    1573739.7 -0.00017226531 -0.00015703918 -0.0006084783 
  438000    2.4435664 0.0021833374    284904.75    1576845.2 -5.0059908e-05 -0.0001714544 -0.00062848707 
  439000    2.4496831 0.0021799509    284904.75    1579930.9 -8.0991603e-05 -0.00017524394 -0.00059657392 
  440000    2.4433943 0.0021836422    284904.75    1583038.2 -9.4997935e-05 -0.0001834443 -0.00060153466 
  441000    2.4429638 0.0021848324    284904.75    1586073.7 -8.7305193e-05 -0.00017625128 -0.00059722455 
  442000     2.443636 0.0021831176    284904.75    1589136.8 -6.5480613e-05 -0.00018747515 -0.00057269155 
  443000    2.4492582 0.0021822225    284904.75    1592254.7 -4.4282377e-05 -0.00012487958 -0.00060599066 
  444000     2.445405 0.0021847743    284904.75    1595316.9 -4.8676781e-05 -0.00010685904 -0.00047355665 
  445000    2.4451913 0.0021813712    284904.75    1598435.5 -0.00010101121 -3.2553577e-05 -0.00045804591 
  446000    2.4511138 0.0021794937    284904.75    1601523.1 -2.376597e-05 -3.6594066e-05 -0.00047648096 
  447000    2.4430931 0.0021848585    284904.75    1604619.8 -9.9930122e-06 -1.96936e-05 -0.00048280743 
  448000    2.4460985 0.0021806113    284904.75    1607733.6 -3.797164e-05 -2.2510609e-05 -0.00055477741 
  449000    2.4430518 0.0021849205    284904.75    1610909.2 -3.5553708e-05 4.0367447e-06 -0.00056391732 
  450000    2.4447334 0.0022100763    284904.75    1614057.1 3.1669655e-05 0.00020990398 -0.00052372682 
  451000     2.444115 0.0021825128    284904.75    1617245.6 -1.9127325e-05 4.7346373e-05 -0.00049897331 
  452000    2.4490148 0.0021806802    284904.75    1620426.9 -8.7535355e-07 6.497059e-05 -0.00045668692 
  453000    2.4453449 0.0021835486    284904.75    1623637.1 7.0536779e-05 0.00011374336 -0.0004960218 
  454000    2.4453556 0.0021846657    284904.75    1626813.5 7.4245687e-05 6.4872146e-05 -0.00049370075 
  455000    2.4514777 0.0021852712    284904.75    1630014.7 3.8997822e-05 6.0316087e-05 -0.00051670633 
  456000    2.4372116 0.0022618157    284904.75    1633236.2 0.00020559018 0.00011264265 -0.00042068266 
  457000    2.4511665 0.0021898961    284904.75    1636412.2 -4.4649529e-06 -3.1643469e-07 -0.00044182908 
  458000    2.4444875  0.002183193    284904.75    1639592.7 -8.1790457e-05 -7.2911342e-05 -0.00041453308 
  459000    2.4454584 0.0021803103    284904.75    1642763.1 -5.4383581e-05 -6.4076319e-05 -0.00035900599 
  460000    2.4457561 0.0021816586    284904.75    1645923.5 -7.7721353e-05 -0.00012545014 -0.00031303623 
  461000    2.4400952 0.0022397334    284904.75    1649048.4 -7.2466844e-05 -0.00014858906 -0.00035725628 
  462000     2.445144  0.002182303    284904.75    1652233.7 -6.8713228e-05 -0.00019222293 -0.00025383682 
  463000    2.4449137  0.002210833    284904.75    1655401.4 -3.6365669e-05 -0.00016563544 -0.00026656853 
  464000     2.443689 0.0021834155    284904.75    1658501.1 -4.5261667e-06 -0.0002330899 -0.00024445607 
  465000    2.4452808 0.0021811155    284904.75    1661673.3 -4.2900385e-05 -0.00024221963 -0.00022185454 
  466000    2.4440854 0.0021832113    284904.75    1664887.5 -8.0139006e-05 -0.00029486837 -0.00031652796 
  467000    2.4490688 0.0021869191    284904.75    1668036.8 -6.7413462e-05 -0.00031833838 -0.000231811 
  468000    2.4445459 0.0021817987    284904.75    1671086.4 -2.8434653e-06 -0.00030160845 -0.00024952185 
  469000    2.4429677 0.0021844868    284904.75      1674148 7.150758e-06 -0.00032124253 -0.00025771232 
  470000    2.4451747 0.0021808841    284904.75    1677221.4 3.8768032e-05 -0.00031998615 -0.00019256171 
  471000    2.4453538 0.0022167946    284904.75    1680317.2 2.4418035e-05 -0.00036685768 -0.00021718751 
  472000    2.4463382 0.0021910294    284904.75    1683332.5 4.0042444e-05 -0.0003995519 -0.00021380001 
  473000    2.4480424 0.0021908439    284904.75    1686233.9 -2.0793591e-05 -0.00044161557 -0.00022941403 
  474000    2.4435021 0.0021838192    284904.75    1689184.5 -1.1476596e-05 -0.00045422901 -0.00023311494 
  475000    2.4437155 0.0021827354    284904.75    1692196.5 5.0203964e-06 -0.00032002161 -0.00020277371 
  476000    2.4445641 0.0022206832    284904.75    1695334.5 8.3995082e-05 -0.00040789974 -0.0002252902 
  477000    2.4439323 0.0021833348    284904.75      1698466 8.7406055e-05 -0.00046722281 -0.00026301559 
  478000    2.4427399 0.0021855428    284904.75      1701647 8.3799653e-05 -0.00044354012 -0.00027080883 
  479000    2.4493862 0.0021901542    284904.75    1704867.7 -6.4755351e-06 -0.00049995244 -0.00019647595 
  480000    2.4427393 0.0021854257    284904.75    1708069.7 -4.3742792e-05 -0.00043481559 -0.00016185878 
  481000    2.4461418 0.0021809036    284904.75    1711304.5 4.3540914e-06 -0.00043010013 -0.00013782017 
  482000    2.4406148 0.0022646062    284904.75    1714632.9 -4.5409785e-06 -0.00043832868 -6.0841441e-05 
  483000    2.4435682 0.0021834421    284904.75    1717854.6 -2.2112084e-05 -0.0004992653 -0.00010744969 
  484000    2.4437843 0.0021827314    284904.75    1721106.4 6.9566046e-05 -0.00050651332 -0.00016901792 
  485000    2.4475766  0.002187082    284904.75    1724417.5 6.498228e-05 -0.00052677228 -0.00015653115 
  486000    2.4440594 0.0021833798    284904.75    1727719.5 2.4171026e-05 -0.00054848853 -0.00014067801 
  487000    2.4473189 0.0022108985    284904.75    1730989.1 -5.2370946e-05 -0.00059703001 -0.00029152014 
  488000    2.4483337  0.002180142    284904.75    1734325.1 -0.00010237183 -0.00061763459 -0.00014371848 
  489000    2.4472164 0.0021785913    284904.75    1737664.1 -9.577241e-05 -0.0006258895 -0.0001333456 
  490000    2.4438536  0.002182587    284904.75    1740987.8 -0.00023963803 -0.00062079649 -3.2886162e-05 
  491000    2.4428127 0.0021852044    284904.75      1744248 -9.0391584e-05 -0.00064624466 -0.00011880403 
  492000    2.4442043 0.0022022799    284904.75    1747547.7 -7.6688038e-05 -0.00062424348 -0.0001263444 
  493000    2.4455935  0.002184221    284904.75    1750878.1 -9.077175e-05 -0.00062709055 -5.6112879e-05 
  494000    2.4452984 0.0021805139    284904.75    1754375.6 -8.3039765e-05 -0.00059856887 -7.4301411e-05 
  495000    2.4486482 0.0021764159    284904.75    1757917.9 -1.0263171e-06 -0.00054353789 -9.9812246e-05 
  496000    2.4438763 0.0021840606    284904.75    1761295.9 -4.015428e-05 -0.00054682145 -0.00011168084 
  497000    2.4459852 0.0022025283    284904.75    1764722.1 -7.7410598e-05 -0.00050470183 -0.00012596737 
  498000    2.4437504 0.0021833225    284904.75      1768139 -5.3139908e-05 -0.00057423143 -4.961947e-05 
  499000    2.4444374 0.0022221822    284904.75    1771603.8 -0.00014684246 -0.00062762365 1.5036496e-05 
  500000    2.4481482 0.0021787808    284904.75    1774944.2 -4.6648679e-06 -0.00051330926 -5.1248572e-05 
  501000    2.4434332 0.0021838343    284904.75    1778106.2 -7.592113e-05 -0.00038150266 -1.1395682e-05 
  502000    2.4444275 0.0021823286    284904.75    1781330.5 -1.8747523e-05 -0.00046051264 -7.0514442e-05 
  503000    2.4430747 0.0021848783    284904.75    1784677.1 -1.6262335e-05 -0.00044999294 -7.4814859e-05 
  504000    2.4449394  0.002181723    284904.75    1788091.5 2.9345478e-05 -0.00043515603 -6.3233982e-05 
  505000    2.4476585 0.0021852647    284904.75    1791615.7 0.00010710012 -0.0003798422 -0.00010162731 
  506000    2.4455185 0.0021815716    284904.75    1795149.9 9.1566473e-05 -0.00038276405 -0.0001008942 
  507000    2.4432611 0.0021849087    284904.75    1798755.8 8.3925525e-05 -0.00042860265 -9.1961093e-05 
  508000    2.4432902 0.0021840541    284904.75    1802426.1 0.0001628867 -0.00042972266 -8.5148601e-05 
  509000    2.4470842 0.0021791739    284904.75    1806260.2 0.00014951027 -0.00044759041 -8.1630026e-05 
  510000    2.4511884 0.0021850852    284904.75    1810159.1 0.00014670297 -0.00040110817 -8.3679794e-05 
  511000    2.4434901 0.0021834667    284904.75    1814056.1 0.00016241007 -0.00037362413 -0.0001046046 
  512000     2.445811 0.0021810628    284904.75    1817876.9 0.00016417236 -0.00036421464 -0.00014375258 
  513000    2.4447463 0.0021833913    284904.75    1821719.7 0.0001464552 -0.00031736661 -7.198617e-05 
  514000    2.4481944 0.0021795917    284904.75    1825613.3 0.00016766025 -0.00033304653 -7.9831348e-05 
  515000    2.4411981  0.002258557    284904.75    1829560.3 0.00033847803 -0.0001893589 0.00040273915 
  516000    2.4441997 0.0021824386    284904.75    1833564.9 0.00014393008 -0.00029949774 -0.00012740943 
  517000    2.4486007 0.0021791456    284904.75      1837668 0.00018192731 -0.00034463718 -0.00010514978 
  518000    2.4445778 0.0021825607    284904.75      1841806 0.00013615487 -0.00032090237 -8.3263948e-05 
  519000     2.442894 0.0021850504    284904.75    1845981.9 0.00012757441 -0.0003531019 -7.0752715e-05 
  520000     2.448937 0.0021840381    284904.75    1850256.2 0.00015526013 -0.00040203352 -3.0699502e-05 
  521000     2.444816 0.0021814423    284904.75    1854608.9 0.00014194608 -0.00052072133 -5.2420984e-05 
  522000    2.4510068 0.0022156842    284904.75    1859031.3 9.4278223e-05 -0.00054253844 2.2681529e-05 
  523000     2.448565 0.0021914174    284904.75    1863511.1 7.0509944e-05 -0.00050959015 6.572601e-05 
  524000    2.4456431 0.0021858332    284904.75    1868040.9 6.3022934e-05 -0.0005259629 5.957188e-05 
  525000     2.449245 0.0021884963    284904.75    1872524.6 3.7006703e-05 -0.00047432609 0.00013339253 
  526000    2.4485568 0.0021963464    284904.75    1876810.1 3.1705062e-06 -0.00049424858 0.00012652169 
  527000    2.4439296   0.00218282    284904.75    1881151.4 0.0001113031 -0.00053629582 8.0939453e-05 
  528000    2.4469035 0.0021820816    284904.75    1885413.8 0.00011250289 -0.00051048499 6.6037198e-05 
  529000    2.4484929 0.0021792909    284904.75    1889667.6 0.00017587725 -0.00055322213 9.6732088e-05 
  530000    2.4388784 0.0022483726    284904.75      1893819 0.00013948933 -0.00054060644 5.7731724e-05 
  531000    2.4479832 0.0021783797    284904.75    1897970.6 0.00014710348 -0.00055397067 8.3953527e-05 
  532000    2.4494382 0.0021806696    284904.75    1902071.7 7.9814521e-05 -0.0005218833 0.00011332623 
  533000    2.4449114 0.0021818116    284904.75      1906130 0.00010622236 -0.00049279388 0.00015830075 
  534000     2.449974  0.002187252    284904.75    1910176.6 8.5987265e-05 -0.00049893883 0.00019325585 
  535000    2.4471785 0.0021818791    284904.75    1914190.9 2.297884e-05 -0.00055941596 0.00018915722 
  536000    2.4449088 0.0021966754    284904.75    1918178.8 8.9115564e-05 -0.0005260134 0.00019606509 
  537000    2.4499265 0.0021846732    284904.75    1922265.5 0.00013214486 -0.00055170714 0.00019101274 
  538000    2.4479832 0.0021885479    284904.75    1926222.3 0.00016665239 -0.00050180871 0.00015873976 
  539000    2.4476232 0.0022023048    284904.75    1930121.2 0.00012427177 -0.00047332675 9.9669266e-05 
  540000    2.4446272 0.0021833129    284904.75    1934012.2 0.00011918443 -0.00041741212 0.00019276273 
  541000    2.4431894 0.0021843466    284904.75      1937997 0.00016979688 -0.00037557592 0.00020992606 
  542000    2.4433056 0.0021843628    284904.75    1942000.2 0.00017154356 -0.00038053718 0.00018664857 
  543000    2.4438639 0.0021833992    284904.75    1945952.3 0.00023336435 -0.00039607633 0.00027840686 
  544000    2.4437724 0.0021832072    284904.75    1949921.7 0.00021712277 -0.00038336589 0.00029933795 
  545000    2.4494645 0.0022099591    284904.75    1953937.1 0.00024802202 -0.00044167756 0.0002764246 
  546000    2.4475626 0.0021799265    284904.75    1957880.5 0.00018624872 -0.0003720391 0.00026950187 
  547000    2.4448927 0.0021827721    284904.75    1961870.8 0.00016310015 -0.00042157226 0.00025006897 
  548000     2.445571  0.002184365    284904.75    1965886.2 0.00017260707 -0.00041426652 0.00028382055 
  549000    2.4472889 0.0021790011    284904.75    1969972.2 0.00010110563 -0.00038073823 0.00023504569 
  550000    2.4473099 0.0021813242    284904.75    1974120.4 0.00013947341 -0.00034005765 0.00015203832 
  551000    2.4457444 0.0021915252    284904.75    1978238.1 8.9963682e-05 -0.000386436 0.00013893336 
  552000    2.4371398 0.0022632308    284904.75      1982385 9.6513638e-05 -0.00036594405 0.0001588752 
  553000    2.4455321 0.0021802595    284904.75      1986619 0.00011001777 -0.00039528733 0.00014558587 
  554000    2.4444634 0.0021826312    284904.75      1990844 0.0001276085 -0.00046765245 0.00019428432 
  555000    2.4453224 0.0021880708    284904.75      1995011 3.5709187e-05 -0.00054845511 0.00018918575 
  556000    2.4449141 0.0021819473    284904.75    1999145.3 7.8111396e-05 -0.00051602602 0.00017107014 
  557000    2.4471509 0.0021800987    284904.75    2003338.4  7.68738e-05 -0.0005016278 0.00014327541 
  558000    2.4467036 0.0021799269    284904.75    2007587.2 -3.5275375e-05 -0.00048707938 0.00013073116 
  559000    2.4428884  0.002185421    284904.75      2011821 -6.3194982e-05 -0.00049782804 0.00013027988 
  560000    2.4474459 0.0021843989    284904.75    2016140.8 -7.381852e-05 -0.00053000257 0.00014948198 
  561000    2.4443174 0.0021824477    284904.75    2020431.4 -0.00011608379 -0.00052935582 0.0001558482 
  562000    2.4477983 0.0022278272    284904.75    2024800.7 -0.00016824401 -0.00039707141 0.00011958173 
  563000    2.4440373 0.0021824788    284904.75    2029449.3 -4.6583858e-05 -0.00036663313 0.00014379332 
  564000    2.4430958 0.0021847281    284904.75    2034205.4 -2.804757e-05 -0.00037129381 0.00013311071 
  565000    2.4384796 0.0022402733    284904.75    2039007.1 -6.4399227e-05 -0.00034501548 0.00014602953 
  566000    2.4436148 0.0021838487    284904.75    2043816.9 -0.00011987541 -0.00017407308 6.5901326e-05 
  567000    2.4429514 0.0021845891    284904.75    2048787.2 -0.00010606388 -0.00013669626 9.8549278e-05 
  568000    2.4457162 0.0021979735    284904.75    2053856.2 -8.2408527e-05 -0.00019844468 9.5277741e-05 
  569000    2.4448119  0.002182795    284904.75    2058982.8 -9.8175728e-05 -0.00024619108 0.00013068631 
  570000    2.4427894 0.0021854387    284904.75    2064217.7 -9.6316531e-05 -0.00026205487 0.00012026977 
  571000    2.4497056 0.0021814093    284904.75      2069457 -6.1262554e-05 -0.00029101127 7.7622851e-05 
  572000    2.4462133  0.002181402    284904.75    2074624.2 -6.3690353e-05 -0.00035203352 7.5416888e-05 
  573000    2.4430188 0.0021845891    284904.75    2079807.2 -0.00021711242 -0.00043761179 2.9515031e-05 
  574000    2.4462217 0.0021813539    284904.75    2084978.2 -0.00025415946 -0.00043726037 7.0867934e-05 
  575000    2.4461524 0.0021801726    284904.75    2090010.7 -0.00019897513 -0.00049389755 4.2182136e-05 
  576000    2.4472093 0.0022162424    284904.75    2094955.4 -0.0002163766 -0.00049905737 1.6414038e-05 
  577000    2.4453727 0.0021893557    284904.75    2099937.8 -0.00027722505 -0.00055173395 2.0338395e-05 
  578000    2.4479268 0.0021868213    284904.75    2104969.3 -0.00028884348 -0.00057456996 5.5745174e-05 
  579000    2.4431612 0.0021841127    284904.75    2110055.8 -0.00030019829 -0.00058145399 6.2711331e-05 
  580000    2.4451166 0.0021919648    284904.75    2115182.4 -0.00032455172 -0.00061565085 5.5422505e-05 
  581000    2.4429467  0.002211145    284904.75    2120331.9 -0.00037474381 -0.00053827317  0.000135931 
  582000    2.4456129 0.0021804385    284904.75    2125437.4 -0.00036522505 -0.00058387153 0.00010204819 
  583000    2.4434451 0.0021837364    284904.75    2130452.3 -0.0004187855 -0.0005138022 3.1241115e-05 
  584000    2.4429434 0.0021851603    284904.75    2135461.8 -0.00045840083 -0.00051055841 5.6565956e-05 
  585000       2.4324 0.0022812081    284904.75    2140500.9 -0.00031734055 -0.00048008726 0.00022159336 
  586000    2.4468574 0.0021793893    284904.75    2145492.6 -0.00033586716 -0.00040629508 4.3040397e-05 
  587000     2.444378 0.0021831652    284904.75    2150485.3 -0.00030937202 -0.00041663246 2.0376294e-05 
  588000    2.4433901 0.0021838422    284904.75    2155545.8 -0.0003941776 -0.00041061661 -3.9615024e-05 
  589000    2.4476228 0.0021793472    284904.75    2160662.9 -0.00041774995 -0.00041469671 -2.2941073e-05 
  590000    2.4431131 0.0022177025    284904.75    2165824.2 -0.00041004722 -0.00049004084 -8.5556839e-06 
  591000    2.4482123 0.0021802269    284904.75    2170846.1 -0.00023084268 -0.00034170147 -6.8783713e-05 
  592000    2.4484523 0.0021825792    284904.75    2175696.4 -0.00024761741 -0.00038238185 -0.00017356157 
  593000    2.4466787 0.0021799074    284904.75    2180567.6 -0.00027831738 -0.00033204484 -0.00014571477 
  594000     2.443864 0.0021832668    284904.75    2185438.7 -0.00028143576 -0.00034126979 -0.0001522346 
  595000    2.4431963 0.0021844091    284904.75    2190358.8 -0.00029292461 -0.00032055303 -0.00012656903 
  596000    2.4443881  0.002204101    284904.75    2195319.7 -0.00024647825 -0.00034311285 -0.00010211252 
  597000    2.4450826 0.0021816955    284904.75    2200331.2 -0.00022359174 -0.00035740376 -0.00014475108 
  598000     2.443091 0.0021845817    284904.75    2205314.7 -0.00024502604 -0.00033614905 -0.00017285163 
  599000    2.4430223 0.0021850532    284904.75    2210327.6 -0.00027288485 -0.00032473733 -0.00020727778 
  600000    2.4443263 0.0021821941    284904.75    2215373.2 -0.0003162652 -0.00034156272 -0.00020581947 
  601000    2.4447969 0.0022275574    284904.75    2220351.7 -0.00036595617 -0.00023531105 -0.00015572418 
  602000    2.4421577  0.002231537    284904.75    2225411.7 -0.0001552406 -0.00017062532 7.7049716e-05 
  603000    2.4443867 0.0021822047    284904.75    2230339.6 -0.0002254571 -0.00044828028 -0.00015662752 
  604000    2.4443031 0.0021827791    284904.75    2235224.3 -0.00022090703 -0.0004461756 -0.00013974583 
  605000    2.4439543 0.0021828597    284904.75    2240035.4 -0.00027069309 -0.00046018823 -0.00012267786 
  606000    2.4460041 0.0021932256    284904.75    2244772.2 -0.00021150931 -0.00040421407 -6.9884939e-05 
  607000    2.4436717 0.0021833813    284904.75    2249446.8 -0.00019428823 -0.00035562035 -8.4107798e-05 
  608000    2.4444509 0.0021819571    284904.75    2254133.2 -0.00031044771 -0.00026567135 -0.00023511462 
  609000    2.4432273 0.0021843527    284904.75    2258854.5 -0.0003611685 -0.00026085877 -0.00025000079 
  610000    2.4455994 0.0021811799    284904.75    2263610.7 -0.00042256055 -0.00030612715 -0.00031324041 
  611000    2.4440604 0.0022099271    284904.75    2268474.8 -0.00029776694 -0.00033619596 -0.00028060265 
  612000    2.4477733 0.0021826322    284904.75    2273214.3 -0.00034195871 -0.00030048375 -0.00029901516 
  613000    2.4466764 0.0021802679    284904.75    2277896.2 -0.00038517961 -0.00030161092 -0.00037941307 
  614000    2.4434889 0.0021840506    284904.75    2282556.8 -0.00040480924 -0.00023270853 -0.00032645489 
  615000    2.4445725 0.0021822242    284904.75      2287282 -0.00040078792 -0.0002378769 -0.00032450128 
  616000    2.4443888 0.0021825058    284904.75    2292030.2 -0.00044444643 -0.00024691542 -0.00026873374 
  617000    2.4463649 0.0021850558    284904.75    2296882.6 -0.00042787612 -0.000286389 -0.00035216355 
  618000    2.4446262 0.0022027123    284904.75    2301839.7 -0.00046078246 -0.0002734797 -0.00032256193 
  619000    2.4465102 0.0021807449    284904.75    2306815.4 -0.00048203319 -0.00026219515 -0.00025128271 
  620000    2.4438246 0.0022044525    284904.75    2311833.9 -0.00053558315 -0.00028355292 -0.0002439252 
  621000    2.4441162  0.002182776    284904.75    2316805.5 -0.00050731984 -0.00033854085 -0.00021920883 
  622000    2.4459606 0.0021831216    284904.75    2321852.5 -0.00048707152 -0.00034862276 -0.00024456795 
  623000    2.4469775 0.0021853679    284904.75    2327098.2 -0.00053361374 -0.00038592663 -0.00022338474 
  624000    2.4458077 0.0021945082    284904.75      2332442 -0.00050620054 -0.0003642234 -0.00021578485 
  625000    2.4433113 0.0022079442    284904.75    2337811.6 -0.00056063749 -0.00037093059 -0.00019927144 
  626000    2.4452378  0.002181109    284904.75    2343219.3 -0.00051631847 -0.00047142841 -0.00020296015 
  627000    2.4455868 0.0021809124    284904.75    2348683.5 -0.00049595603 -0.00046783556 -0.00023120867 
  628000    2.4441561 0.0022305031    284904.75    2354165.9 -0.00039276543 -0.0005479761 -0.00020357531 
  629000    2.4479955 0.0021849134    284904.75    2359611.4 -0.00049972754 -0.00057074164 -0.00022146884 
  630000    2.4458146 0.0022061778    284904.75    2365148.4 -0.00053014195 -0.00059306347 -0.00016698217 
  631000    2.4433415 0.0021839674    284904.75    2370645.9 -0.00058408045 -0.0006478859 -0.00016870607 
  632000    2.4465578 0.0021816032    284904.75    2376080.5 -0.00048317059 -0.0005253596 -0.00024603641 
  633000    2.4459853 0.0021839557    284904.75    2381471.9 -0.00046449566 -0.00067925008 -0.00037787064 
  634000    2.4452759 0.0021833819    284904.75    2386819.2 -0.00044439369 -0.00072369348 -0.00034707908 
  635000    2.4435763  0.002183414    284904.75    2392180.1 -0.00045666597 -0.00072031959 -0.00033792813 
  636000    2.4435454  0.002183448    284904.75    2397589.3 -0.00046081635 -0.00071006679 -0.00032054299 
  637000    2.4464314 0.0021880972    284904.75    2403086.3 -0.00043057962 -0.00067653086 -0.00027148108 
  638000    2.4455026 0.0021800266    284904.75    2408680.1 -0.00036870115 -0.00074319738 -0.00033666065 
  639000    2.4367984  0.002254156    284904.75    2414173.9 -0.00036488159 -0.00076927717 -0.00031074597 
  640000    2.4438867 0.0022167132    284904.75    2419618.2 -0.00034043736 -0.00077557401 -0.00018277119 
  641000    2.4471688 0.0021808204    284904.75    2425062.2 -0.00049837546 -0.00078700587 -0.00023503542 
  642000    2.4462426 0.0021821016    284904.75    2430498.8 -0.00047316106 -0.0006956337 -0.00019443907 
  643000    2.4459786 0.0021809402    284904.75    2436002.1 -0.00043359639 -0.00071683334 -0.00022314588 
  644000    2.4440284 0.0021828547    284904.75    2441562.1 -0.00039629339 -0.00072283773 -0.00020930443 
  645000    2.4432298 0.0021845042    284904.75    2447194.1 -0.00038558555 -0.00070443598 -0.00022151048 
  646000    2.4438741 0.0022176416    284904.75    2452828.7 -0.00049951463 -0.00066969018 -0.00022378629 
  647000    2.4437744 0.0021834899    284904.75    2458286.2 -0.00036256928 -0.00080855913 -0.00019897155 
  648000    2.4479662 0.0022016977    284904.75    2463679.1 -0.00038342148 -0.00076312182 -0.00021451978 
  649000    2.4468423 0.0021791966    284904.75    2469126.7 -0.00034477831 -0.00074542246 -0.00019291085 
  650000    2.4435043  0.002209316    284904.75    2474592.4 -0.00033600324 -0.00074870644 -0.00022758393 
  651000    2.4461783 0.0021803343    284904.75      2480086 -0.00036701457 -0.00070716553 -0.00024215567 
  652000    2.4432131 0.0021846441    284904.75    2485640.2 -0.00039673839 -0.00070760231 -0.00020436261 
  653000    2.4425904 0.0021854219    284904.75    2491279.7 -0.00046975216 -0.00079170455 -0.00020446764 
  654000    2.4445537 0.0021821963    284904.75    2496896.6 -0.00047836345 -0.0008093795 -0.00021973122 
  655000    2.4452151 0.0021825669    284904.75      2502531 -0.00045854388 -0.00079374682 -0.00021731149 
  656000    2.4462963 0.0021808258    284904.75    2508247.4 -0.00040943714 -0.00084189459 -0.00019279695 
  657000    2.4452652 0.0022032212    284904.75      2514110 -0.00040381377 -0.00077822698 -0.00016543596 
  658000    2.4447395 0.0021814906    284904.75    2519991.3 -0.00036816719 -0.00080829693 -0.00016395218 
  659000    2.4483331 0.0021907717    284904.75    2525738.7 -0.00040174268 -0.00087972309 -8.2781311e-05 
  660000    2.4465263 0.0021823598    284904.75    2531466.2 -0.00040880117 -0.00089264571 4.3899806e-05 
  661000    2.4447946 0.0021847603    284904.75    2537156.5 -0.00043270037 -0.00084286367 4.8714019e-05 
  662000    2.4455651  0.002186277    284904.75    2542915.6 -0.00043507835 -0.00088409311 5.6223041e-05 
  663000    2.4444896 0.0021823259    284904.75      2548657 -0.00041845349 -0.00090233739 9.6123437e-05 
  664000    2.4451626 0.0021811876    284904.75    2554358.6 -0.00041756832 -0.00085840055 0.00010710267 
  665000      2.44314 0.0021846053    284904.75    2560022.4 -0.00040532765 -0.00087237449 0.00011308553 
  666000    2.4437756 0.0021831371    284904.75    2565674.3 -0.00042992401 -0.00083539031 8.4748304e-05 
  667000    2.4433528 0.0021837705    284904.75    2571372.2 -0.0004226165 -0.0008092586 1.3003183e-05 
  668000    2.4445149 0.0021824809    284904.75    2577098.6 -0.00042525821 -0.00074665247 -6.6543642e-05 
  669000    2.4453197 0.0021917757    284904.75    2582804.4 -0.00038817071 -0.00065039126 -6.9450241e-05 
  670000    2.4485912 0.0021863475    284904.75    2588506.8 -0.00034221579 -0.00065842144 -1.7358347e-05 
  671000    2.4435468 0.0021834756    284904.75    2594119.9 -0.00050877693 -0.00061680491 3.9683342e-05 
  672000    2.4439992 0.0021833093    284904.75    2599539.1 -0.0005575758 -0.00047908171 0.00011716436 
  673000    2.4440682 0.0021830172    284904.75    2605068.3 -0.00055756342 -0.00047027698 0.00012487631 
  674000    2.4467354 0.0021790362    284904.75    2610695.7 -0.00052006862 -0.00046461683 0.00015289749 
  675000    2.4445722 0.0021822668    284904.75    2616502.1 -0.00054595249 -0.00046817688 8.7560453e-05 
  676000    2.4440383 0.0021820928    284904.75    2622461.2 -0.00055009871 -0.00046055745 4.9696349e-05 
  677000    2.4447108 0.0021811031    284904.75    2628408.7 -0.00055091567 -0.0005431758 -3.4327778e-05 
  678000    2.4472045 0.0021810287    284904.75    2634245.2 -0.00052470474 -0.00055832459 4.8878001e-06 
  679000    2.4431466 0.0021843669    284904.75    2639975.1 -0.0004556616 -0.00061063406 6.0659185e-05 
  680000    2.4469021 0.0021808014    284904.75    2645780.2 -0.00043813217 -0.00060299431 2.0543519e-05 
  681000    2.4434513 0.0021836584    284904.75    2651609.3 -0.000449149 -0.00062381691 1.7266328e-05 
  682000    2.4448118 0.0021817903    284904.75    2657465.7 -0.00045257734 -0.00063369224 3.2438131e-05 
  683000    2.4431077 0.0021843483    284904.75    2663292.3 -0.00039232731 -0.00063360811 9.1433292e-06 
  684000    2.4454809 0.0021843956    284904.75    2669042.1 -0.00041429911 -0.00059471472 5.095465e-05 
  685000    2.4457561  0.002182236    284904.75    2674744.5 -0.00047059993 -0.00061402831 -1.5748521e-05 
  686000    2.4430682  0.002184276    284904.75    2680508.6 -0.00050262353 -0.00054054407 5.1084266e-05 
  687000    2.4485022 0.0022575351    284904.75    2686186.8 -0.00041356425 -0.00056422487 0.00016340934 
  688000      2.44309 0.0021847359    284904.75    2691843.6 -0.00043093902 -0.0004336586 0.00019002695 
  689000    2.4480487 0.0021879701    284904.75    2697571.5 -0.00036953849 -0.00035899331 0.00015962641 
  690000    2.4452572 0.0022008985    284904.75    2703401.8 -0.00038657816 -0.00035491009 0.00012166554 
  691000     2.442989 0.0021848867    284904.75    2709099.2 -0.00044205313 -0.00033080936 0.00016927556 
  692000     2.443998 0.0021828632    284904.75    2714723.1 -0.00045979178 -0.00039071848 0.00013735737 
  693000    2.4450987 0.0021935071    284904.75    2720325.6 -0.00047352649 -0.00040439355 0.00015754374 
  694000    2.4443918 0.0021829662    284904.75    2725953.3 -0.00049491712 -0.00036091915 0.00015483938 
  695000    2.4439639 0.0021832586    284904.75    2731598.2 -0.00054802017 -0.00033610137 0.00013519539 
  696000    2.4496436 0.0021829115    284904.75      2737126 -0.00053791871 -0.00028624517 0.00013183759 
  697000     2.444484 0.0021821298    284904.75    2742559.8 -0.00041585134 -0.00030959734 3.777961e-05 
  698000    2.4475354  0.002202176    284904.75      2747987 -0.00044277934 -0.00033190025 -4.2454289e-05 
  699000    2.4449736 0.0021922306    284904.75    2753353.4 -0.0004922219 -0.00026326592 1.2793434e-05 
  700000    2.4490137 0.0021803174    284904.75    2758685.6 -0.00055210788 -0.00039120007 8.013575e-06 
  701000    2.4437561  0.002183558    284904.75    2763958.6 -0.00052967955 -0.00030660252 2.5689631e-05 
  702000    2.4454399 0.0021856803    284904.75    2769355.4 -0.00048074097 -0.00034340097 7.4944976e-06 
  703000    2.4457392 0.0021806251    284904.75    2774825.7 -0.00046996111 -0.00033567027 -4.4847048e-05 
  704000    2.4444939 0.0021817774    284904.75    2780324.5 -0.00039618463 -0.00033034475 -4.8289856e-05 
  705000    2.4507859 0.0021800852    284904.75    2785821.3 -0.00041568353 -0.00030334051 -4.5122212e-05 
  706000    2.4434647  0.002183891    284904.75    2791402.8 -0.00040574718 -0.00031960099 -7.2190517e-05 
  707000    2.4441834 0.0021826048    284904.75    2797052.4 -0.00034843316 -0.00028158516 -3.5264043e-05 
  708000    2.4451985 0.0021819922    284904.75    2802617.5 -0.00037239185 -0.00032513747 3.8992402e-05 
  709000    2.4452168 0.0021818817    284904.75    2808104.9 -0.00036690723 -0.00030494021 5.9370966e-05 
  710000    2.4436338  0.002183087    284904.75    2813749.9 -0.00033998077 -0.00034278539 4.0799026e-05 
  711000    2.4490428 0.0021833894    284904.75    2819416.6 -0.0003367348 -0.00035922478 7.7641958e-05 
  712000    2.4436144 0.0021833877    284904.75    2825195.3 -0.00037970959 -0.00036283421 9.423583e-05 
  713000    2.4481767 0.0021975979    284904.75    2831021.1 -0.00033702738 -0.00036605386 6.9534765e-05 
  714000    2.4437818 0.0021833925    284904.75    2836877.2 -0.00033438958 -0.00038432752 4.423458e-05 
  715000    2.4465362  0.002182362    284904.75    2842812.2 -0.00032537464 -0.00036101925 -6.2444345e-06 
  716000    2.4423363 0.0022205792    284904.75    2848868.2 -0.00040018845 -0.00043149092 -0.00012506976 
  717000     2.446907 0.0021866319    284904.75    2854920.3 -0.00040898515 -0.00026731515 -3.2735902e-05 
  718000    2.4433112 0.0021837678    284904.75    2860828.1 -0.00041263627 -0.00026229321 -1.5549894e-05 
  719000    2.4448501  0.002181937    284904.75    2866813.9 -0.00045650589 -0.00031450461 -4.0524144e-05 
  720000    2.4482362 0.0021870615    284904.75    2872805.5 -0.00047840334 -0.00036132907 -0.00015441308 
  721000    2.4415045 0.0022236026    284904.75    2878738.7 -0.00044736685 -0.00035797957 -0.00016443732 
  722000    2.4433695 0.0022139472    284904.75    2884748.3 -0.00037542212 -0.00050227012 -0.00031102982 
  723000    2.4339852  0.002273811    284904.75    2890687.8 -0.00034220741 -0.00069133999 -0.0002837592 
  724000    2.4438219 0.0021833511    284904.75    2896707.6 -0.00054098294 -0.0004602438 -0.00018393834 
  725000    2.4447305 0.0021815046    284904.75    2902777.6 -0.00053203465 -0.00049401956 -0.00020433324 
  726000    2.4432336 0.0021842761    284904.75      2908957 -0.00053199712 -0.00065213822 -0.00016857132 
  727000     2.445855 0.0021810027    284904.75    2915215.4 -0.00053802928 -0.00067081007 -0.00017225074 
  728000    2.4457934 0.0021850175    284904.75    2921399.3 -0.00055078514 -0.00064257142 -0.00017320617 
  729000    2.4433823 0.0021838836    284904.75    2927581.8 -0.0005175001 -0.0006035193 -0.00016606652 
  730000    2.4432594 0.0021845234    284904.75    2933760.5 -0.00054377647 -0.00060431451 -0.00017207574 
  731000    2.4490924 0.0022023876    284904.75    2939929.5 -0.00052915233 -0.00061297309 -0.00022893015 
  732000      2.44554 0.0022002638    284904.75    2945984.2 -0.00064470284 -0.00061711669 -0.00011102615 
  733000     2.447609 0.0021830635    284904.75    2951838.3 -0.0006367433 -0.00068745392 -0.00012249409 
  734000    2.4469114 0.0021791653    284904.75    2957624.8 -0.00067814057 -0.00073778954 -0.0001669985 
  735000    2.4458102  0.002200596    284904.75    2963436.1 -0.00072524854 -0.00074513749 -0.00016567096 
  736000    2.4445267 0.0021827056    284904.75    2969266.5 -0.00069880843 -0.00073543479 -0.00016944956 
  737000     2.449888 0.0021789345    284904.75    2975051.1 -0.00068306638 -0.00068371714 -0.00015535667 
  738000     2.447882  0.002182476    284904.75    2980804.3 -0.00071022752 -0.00073286209 -0.00015620481 
  739000    2.4440746 0.0021832607    284904.75    2986462.9 -0.0007482954 -0.00080140923 -0.00017949655 
  740000    2.4465696 0.0021904084    284904.75    2992119.5 -0.00078203762 -0.00075861395 -0.00015834287 
  741000     2.445034 0.0021815829    284904.75    2997808.5 -0.00073966387 -0.00077007644 -0.00020750216 
  742000    2.4446251 0.0021820005    284904.75    3003625.5 -0.0007155766 -0.00074193169 -0.00029048214 
  743000    2.4443288 0.0021825059    284904.75      3009379 -0.0007000138 -0.00079954233 -0.00032896408 
  744000    2.4461365 0.0021797073    284904.75    3015277.1 -0.00069562069 -0.00077032677 -0.00030395856 
[...]
  820000    2.4458252  0.002181181    284904.75    3440799.5 -0.00018540644 -0.00047115778 -0.00014420889 
  821000    2.4506115 0.0021837798    284904.75    3445777.2 -0.0001839268 -0.00049189572 -0.00027013966 
  822000    2.4447103 0.0022049626    284904.75    3450798.3 -4.4108818e-05 -0.00049992795 -0.00030940089 
  823000    2.4435221 0.0021841416    284904.75    3455837.5 -0.00010881635 -0.00051310328 -0.00024884536 
  824000    2.4470126 0.0021788555    284904.75    3460974.8 -0.00016037763 -0.0004907098 -0.00021844732 
  825000    2.4431692  0.002184106    284904.75    3466118.8 -0.00015293331 -0.00049425259 -0.00021310737 
  826000    2.4464422 0.0021807718    284904.75    3471366.6 -6.9676911e-05 -0.00057558813 -0.00022327751 
  827000    2.4431944 0.0021844517    284904.75    3476733.5 -9.13927e-05 -0.00056158547 -0.00026786439 
  828000    2.4475229 0.0022003963    284904.75      3482120 -0.00011682306 -0.00052911286 -0.00020926572 
  829000    2.4451661   0.00218727    284904.75    3487359.2 -8.8717737e-05 -0.00056520518 -0.0001939127 
  830000    2.4451159 0.0021806678    284904.75    3492553.9 -7.5128191e-05 -0.00055299826 -0.00018731755 
  831000    2.4473588 0.0022005622    284904.75    3497763.9 -9.8084676e-05 -0.00055108374 -0.00023949078 
  832000    2.4478205 0.0021899264    284904.75    3503051.9 -0.00010671099 -0.00058559791 -0.00027338267 
  833000    2.4530938  0.002181188    284904.75    3508315.3 -0.00015493784 -0.00058976599 -0.00030154485 
  834000    2.4436587 0.0021832879    284904.75    3513524.8 -0.00016991693 -0.00060632772 -0.00029120611 
  835000    2.4444137 0.0021821749    284904.75    3518758.7 -0.00028527373 -0.00055792596 -0.00028641775 
  836000    2.4464743 0.0021993614    284904.75    3524032.3 -0.00028070136 -0.00058164111 -0.00021277981 
  837000    2.4463408  0.002188529    284904.75    3529316.5 -0.00029103433 -0.00062477081 -0.00017064207 
  838000     2.442003 0.0022239707    284904.75    3534645.4 -0.00036524868 -0.00069448343 -0.00016760346 
  839000    2.4467227 0.0021879666    284904.75    3540068.3 -0.00043667537 -0.00068239877 -0.00027903182 
  840000    2.4440838 0.0021837781    284904.75    3545266.7 -0.00036489398 -0.00069020846 -0.00028627852 
  841000     2.446692 0.0021876139    284904.75    3550280.7 -0.00034184322 -0.00069127306 -0.00027141355 
  842000    2.4441497  0.002182687    284904.75    3555328.5 -0.00041023025 -0.00067096397 -0.00018962637 
  843000    2.4457502 0.0021898215    284904.75    3560452.3 -0.00033869634 -0.00064456383 -0.00021074371 
  844000    2.4459021 0.0021808883    284904.75    3565631.4 -0.00036443914 -0.00065658079 -0.00032031185 
  845000    2.4448801 0.0021826661    284904.75    3570902.4 -0.00030945919 -0.00076243501 -0.00033136661 
  846000    2.4475789 0.0022021039    284904.75    3576186.7 -0.00030192788 -0.00078906191 -0.00036039867 
  847000    2.4463129 0.0021851499    284904.75    3581372.2 -0.0002916213 -0.00087145954 -0.00031092974 
  848000    2.4466028 0.0021832556    284904.75    3586521.7 -0.00026019524 -0.00087290633 -0.00034554744 
  849000    2.4456369 0.0021811516    284904.75    3591847.1 -0.00024414271 -0.00083479611 -0.00035491468 
  850000    2.4457404 0.0021843716    284904.75    3596992.8 -0.00031796159 -0.00080765231 -0.00047284926 
  851000    2.4498405 0.0021785367    284904.75    3602201.3 -0.00029877391 -0.00073802952 -0.00047151872 
  852000    2.4453423  0.002186584    284904.75    3607211.5 -0.00039504508 -0.00084111855 -0.00044085512 
  853000    2.4436935 0.0021836806    284904.75    3612139.6 -0.00036355552 -0.00079067059 -0.0004023955 
  854000    2.4452273 0.0021843863    284904.75      3617048 -0.0003328185 -0.00070111465 -0.00044273349 
  855000    2.4451752 0.0021842348    284904.75      3622050 -0.0003782447 -0.00073906507 -0.0004849943 
  856000    2.4467808 0.0021811519    284904.75      3626931 -0.00033306113 -0.00069708911 -0.00046257644 
  857000    2.4447791 0.0021818986    284904.75    3631756.8 -0.00039901913 -0.00067023893 -0.0004585195 
  858000    2.4477076 0.0021795893    284904.75    3636396.4 -0.00045159154 -0.00062930413 -0.00042116463 
  859000    2.4474143 0.0021788491    284904.75      3640978 -0.00042058474 -0.00058020904 -0.00046752571 
  860000    2.4491816  0.002191902    284904.75    3645572.6 -0.0004615693 -0.00069319465 -0.00039555657 
  861000    2.4433551 0.0021838221    284904.75    3649986.5 -0.00053249222 -0.000602782 -0.00044163625 
  862000    2.4427202 0.0021852419    284904.75    3654362.5 -0.00036196755 -0.00061716629 -0.00041622246 
  863000    2.4485163 0.0021962791    284904.75    3658763.9 -0.00036512736 -0.00062136776 -0.00038362479 
  864000    2.4427627 0.0022462297    284904.75    3662999.4 -0.00026376002 -0.00065504521 -0.00042338871 
  865000    2.4447749 0.0022053995    284904.75    3667169.1 -0.00040961887 -0.00066401288 -0.00042227098 
  866000    2.4450949 0.0021815013    284904.75    3671390.6 -0.00039322295 -0.00068211031 -0.00038430799 
  867000    2.4454101 0.0021812571    284904.75    3675714.3 -0.00037378054 -0.00065008963 -0.00036892165 
  868000    2.4436908 0.0022170647    284904.75    3680152.3 -0.00040336904 -0.00066979512 -0.00033769444 
  869000    2.4448326   0.00218195    284904.75    3684552.2 -0.00030135431 -0.00057857167 -0.00024703612 
  870000    2.4436269 0.0022115035    284904.75    3688927.9 -0.00035192453 -0.00051166552 -0.00027962303 
  871000    2.4446574 0.0021822641    284904.75    3693280.1 -0.00033978498 -0.00053872143 -0.00024928989 
  872000    2.4517543 0.0021820551    284904.75    3697647.1 -0.00046636115 -0.00058809497 -0.00035265161 
  873000    2.4435895 0.0021837253    284904.75    3702044.7 -0.00046712705 -0.00058687643 -0.000324678 
  874000     2.443202 0.0021846827    284904.75    3706485.1 -0.00045779937 -0.00058800783 -0.00035652113 
  875000    2.4449318 0.0021970382    284904.75    3710991.1 -0.00045222536 -0.00059637697 -0.00031953785 
  876000    2.4448524 0.0021820339    284904.75    3715471.1 -0.00050404812 -0.00060175521 -0.00038261629 
  877000    2.4443314 0.0021822767    284904.75    3720038.8 -0.00060469369 -0.00060408791 -0.00034321484 
  878000    2.4485379 0.0021892573    284904.75      3724605 -0.00074660745  -0.00072595 -0.00038608332 
  879000    2.4476049 0.0021966809    284904.75    3729192.6 -0.00089471137 -0.00055996316 -0.00029087245 
  880000     2.448324 0.0021822969    284904.75    3733698.2 -0.00088751727 -0.00053495117 -0.00033882327 
  881000    2.4488883 0.0021862636    284904.75    3738276.2 -0.00087947312 -0.00052165737 -0.00036249069 
  882000    2.4468069  0.002216977    284904.75    3742882.2 -0.00091335618 -0.00057317812 -0.00038148983 
  883000     2.446548 0.0021796123    284904.75    3747454.1 -0.00095397259 -0.00056354162 -0.00043719053 
  884000    2.4442111 0.0021827374    284904.75    3752022.3 -0.00090772689 -0.00055883219 -0.00043086376 
  885000    2.4519121 0.0021800759    284904.75    3756639.3 -0.00096470976 -0.00057333212 -0.00032874898 
  886000    2.4483727 0.0021855127    284904.75      3761349 -0.00095136967 -0.0006018443 -0.00032011454 
  887000    2.4449352 0.0021817923    284904.75    3766127.8 -0.00092729085 -0.00054452226 -0.0003091021 
  888000    2.4451557 0.0021824789    284904.75    3770913.4 -0.00081572733 -0.00053531579 -0.00037828484 
  889000    2.4468856  0.002214974    284904.75    3775668.7 -0.00071687417 -0.00040114998 -0.0004595968 
  890000     2.444871 0.0022135799    284904.75    3780367.1 -0.00078984396 -0.00043139813 -0.00039221705 
  891000    2.4456582 0.0021800864    284904.75      3785057 -0.00075133412 -0.00044769098 -0.00039648275 
  892000    2.4469128 0.0021855685    284904.75    3789666.4 -0.00066180651 -0.00032154048 -0.00043929751 
  893000    2.4443544 0.0022240226    284904.75    3794299.1 -0.00056936148 -0.000167877 -0.00043327201 
  894000    2.4459075  0.002179182    284904.75    3798981.6 -0.00054238623 -0.00022634138 -0.00040818046 
  895000    2.4470713  0.002179209    284904.75    3803794.6 -0.00055730954 -0.0002525156 -0.00039066131 
  896000    2.4448361 0.0021821005    284904.75      3808716 -0.00065174964 -0.00021164582 -0.00039275444 
  897000     2.446213 0.0021842761    284904.75    3813621.9 -0.0005833884 -0.00017901661 -0.00035052839 
  898000    2.4510465 0.0021838081    284904.75      3818552 -0.00052647224 -0.0001498364 -0.00030806002 
  899000    2.4450045 0.0021818382    284904.75      3823537 -0.00049326465 -0.00013915632 -0.00031481519 
  900000    2.4479602 0.0021781306    284904.75    3828502.6 -0.00046352647 3.6571773e-06 -0.00038414094 
  901000    2.4441583 0.0021826301    284904.75    3833486.4 -0.0004697284 7.0140104e-05 -0.00037037994 
  902000    2.4455526 0.0021826177    284904.75    3838470.7 -0.00054177401 8.7757906e-05 -0.00042930642 
  903000    2.4486348 0.0021768725    284904.75    3843421.9 -0.0005282025 0.00010343161 -0.00041692003 
  904000    2.4472556 0.0021899997    284904.75    3848380.4 -0.00051979681 9.4657741e-05 -0.00038708616 
  905000    2.4487997 0.0021781721    284904.75    3853236.2 -0.00042715085 8.5633779e-05 -0.0002925204 
  906000    2.4482784 0.0021913924    284904.75      3858041 -0.00043065896 9.2367173e-05 -0.00034471811 
  907000    2.4483571 0.0021786612    284904.75    3862857.4 -0.00044229211 8.9115931e-05 -0.00033103981 
  908000    2.4486911 0.0021900066    284904.75    3867688.3 -0.00033725223 0.00016304495 -0.00027405815 
  909000    2.4512079 0.0021886372    284904.75    3872521.7 -0.00029737077 0.00012148102 -0.00025575743 
  910000    2.4456562  0.002180453    284904.75    3877417.8 -0.00033056135 0.00014604667 -0.0002130785 
  911000     2.444846 0.0021816736    284904.75    3882239.5 -0.00031977431 0.00013653425 -0.00021361325 
  912000    2.4389379 0.0022451282    284904.75    3887071.6 3.2281429e-05 5.9655843e-05 -2.2402566e-05 
  913000     2.451881 0.0021785161    284904.75    3891860.6 -0.00030033254 3.9902326e-05 -0.00018966403 
  914000     2.446245 0.0021913858    284904.75    3896819.4 -0.00027942276 0.0001299134 -0.00017302152 
  915000    2.4491238 0.0021858884    284904.75    3901721.6 -0.00032362336 0.00027806605 -0.00010398148 
  916000    2.4449534  0.002203135    284904.75    3906671.4 -0.00039324859 0.00031907203 -0.00012208478 
  917000    2.4445622 0.0021820664    284904.75    3911692.2 -0.0002821488 0.0002771027 -0.00011611229 
  918000    2.4475296 0.0021852478    284904.75    3916777.9 -0.00033368343 0.00025574359 -0.00012532667 
  919000    2.4438467 0.0021834046    284904.75    3921867.5 -0.00021693959 0.00018929726 -0.00017467193 
  920000    2.4426912 0.0022334446    284904.75    3926905.1 -0.00018516721 0.00028085495 -0.00014112196 
  921000    2.4453604 0.0021815303    284904.75    3931819.2 -0.00017416685 0.0001210684 -7.2591278e-05 
  922000    2.4477213 0.0021801763    284904.75    3936659.9 -0.00016311477 0.00015445252 -8.1490367e-05 
  923000    2.4365965 0.0022829866    284904.75    3941598.8 -0.00017747676 0.00021297904 -0.00022251042 
  924000    2.4458834 0.0021816717    284904.75    3946387.8 -0.0002056349 0.00016492171 -8.4703475e-05 
  925000    2.4498966 0.0021759539    284904.75    3951204.5 -0.00014482799 0.00019491095 -0.00013669595 
  926000     2.446557 0.0021796861    284904.75    3955995.7 -9.4843727e-05 0.00013990621 -0.00011445939 
  927000    2.4435128 0.0021835769    284904.75    3960660.1 -9.9320794e-05 0.00014070332 -0.00017819972 
  928000    2.4456693 0.0021821536    284904.75      3965356 -9.5087728e-05 0.00015720188 -0.0001633958 
  929000    2.4442496 0.0021828575    284904.75    3969916.5 -9.4425901e-06 0.00012725228 -0.00023424327 
  930000     2.443132 0.0021842402    284904.75    3974192.1 -4.40425e-05 0.00013535173 -0.00021771762 
  931000    2.4434905 0.0021839525    284904.75    3978555.8 -5.7991987e-05 0.00011509485 -0.00021097459 
  932000    2.4505843 0.0021762824    284904.75    3982972.6 -0.00010448638 0.00010203446 -0.00020663461 
  933000    2.4456279 0.0021813727    284904.75    3987267.6 -8.7516777e-05 0.00011316512 -0.00019118044 
  934000    2.4440736 0.0022022855    284904.75    3991579.3 -5.7726845e-05 0.00012746786 -0.00024891569 
  935000    2.4331315 0.0022718806    284904.75    3995906.5 -0.00050277085 -0.00016031867 -5.9581371e-05 
  936000    2.4495359 0.0021884395    284904.75    4000114.2 -0.00040181497 5.2422017e-05 -0.00032538294 
  937000    2.4479253 0.0022149278    284904.75    4004254.6 -0.00039630008 -7.2890506e-06 -0.00015457194 
  938000    2.4431696 0.0021841826    284904.75    4008366.7 -0.00039418247 5.8445196e-05 -0.00018352979 
  939000    2.4457241  0.002180826    284904.75    4012503.7 -0.00042781589 6.4180234e-05 -0.00018195482 
  940000    2.4437109 0.0021836685    284904.75    4016574.8 -0.00043658157 0.00010819822 -0.00016570453 
  941000    2.4451491 0.0021829751    284904.75    4020695.1 -0.00047233199 6.9353569e-05 -0.00019337603 
  942000    2.4439236 0.0021827795    284904.75    4024898.4 -0.00047662307 6.0155821e-05 -0.00016511023 
  943000    2.4448548 0.0021809668    284904.75    4029166.3 -0.0004843224 0.00010408593 -0.00013921384 
  944000      2.44568 0.0021872542    284904.75    4033599.7 -0.00055104703 0.00018557385 -0.00023223363 
  945000    2.4449057 0.0022010344    284904.75    4038141.8 -0.000542318 0.00018451906 -0.0002422067 
  946000    2.4485573 0.0021784559    284904.75    4042744.7 -0.0005054762 0.00032602478 -0.00024235903 
  947000    2.4487344 0.0021804815    284904.75      4047435 -0.00048418037 0.00033304038 -0.0003005612 
  948000    2.4469693  0.002178854    284904.75    4052245.7 -0.00046866827 0.00033182688 -0.00026740536 
  949000    2.4432084 0.0021849127    284904.75    4056954.4 -0.0003317969 0.00039851852 -0.000334506 
  950000     2.442584 0.0021856347    284904.75    4061663.7 -0.00017207756 0.00040000992 -0.00027390563 
  951000    2.4486352 0.0021802999    284904.75    4066408.1 -0.00014752803 0.00040386712 -0.00027035785 
  952000     2.443589 0.0021837205    284904.75    4071242.9 -0.00010524253 0.00039592677 -0.00026440384 
  953000    2.4461936 0.0021819298    284904.75    4075995.6 -0.00020362814 0.00047265249 -0.00034371111 
  954000    2.4485258 0.0021923508    284904.75    4080779.3 -0.00018291408 0.00048287751 -0.0002889283 
  955000    2.4429691 0.0021846242    284904.75    4085628.7 -0.00018262846 0.0004932164 -0.0002978683 
  956000    2.4434832 0.0021839418    284904.75    4090502.4 -0.00025087803 0.00043125656 -0.00036736531 
  957000    2.4456983 0.0022003278    284904.75    4095514.6 -0.00023450766 0.00043559966 -0.00041198091 
  958000    2.4426997 0.0021853196    284904.75    4100672.1 -0.00015889536 0.00042139469 -0.00027098133 
  959000    2.4350512 0.0022607731    284904.75      4105810 -8.3118005e-05 0.00064533333 -0.0009077275 
  960000    2.4467897 0.0021863596    284904.75    4110971.5 -0.00020978764 0.00030735133 -0.00021435166 
  961000    2.4451902 0.0021807587    284904.75      4115429 -0.00022619814 0.00035686308 -0.00015969678 
  962000    2.4456589 0.0021978104    284904.75    4119619.6 -0.00025764659 0.00036151863 -0.00013027384 
  963000    2.4442771 0.0021829241    284904.75      4123888 -0.00027568831 0.00035145352 -0.00016082473 
  964000     2.445946 0.0021833685    284904.75    4128196.4 -0.00028592839 0.00036796168 -0.00015556269 
  965000    2.4428743 0.0021845549    284904.75    4132425.7 -0.00024298204 0.00046564676 -0.00015941625 
  966000    2.4469332 0.0021799683    284904.75    4136671.4 -0.00026400968 0.00049127185 -0.00019713302 
  967000    2.4448174 0.0021976141    284904.75    4140734.8 -0.00024462263 0.00049150325 -0.00014513844 
  968000    2.4483166 0.0021899903    284904.75    4144821.2 -0.00019766729 0.00048812937 -0.00021690559 
  969000    2.4434617 0.0021839969    284904.75    4148838.2 -0.00017193755 0.00045761484 -0.00024555967 
  970000    2.4453221 0.0021881379    284904.75    4152715.2 -0.00013215718 0.00043558392 -0.00017349232 
  971000    2.4454721 0.0021827783    284904.75    4156581.9 -0.00012945229 0.00041796543 -0.00020396038 
  972000    2.4453687 0.0021813365    284904.75    4160396.5 -0.00010465539 0.00041243734 -0.00022249102 
  973000    2.4461359 0.0021808093    284904.75      4164300 -5.1304709e-05 0.00038243499 -0.00023430474 
  974000    2.4510409 0.0021796462    284904.75      4168308 -0.00014598622 0.00036588448 -0.00014514611 
  975000    2.4436316 0.0021834281    284904.75    4172473.6 -0.00012258239 0.00039579243 -0.00013402306 
  976000    2.4426598 0.0021852715    284904.75    4176675.8 -0.00017208264 0.00037782279 -7.7456886e-05 
  977000    2.4409794 0.0022493804    284904.75    4180867.4 -0.0001808133 0.00032909366 -6.4860601e-05 
  978000    2.4432875 0.0021843455    284904.75    4184957.3 -0.00024789478 0.00037648212 -2.2108207e-05 
  979000    2.4459054  0.002181114    284904.75    4189108.4 -0.00025272246 0.00036292003 -1.8347528e-05 
  980000    2.4426928 0.0021852071    284904.75    4193273.1 -0.00026617181 0.00038401369 -7.0278074e-05 
  981000    2.4364232 0.0022614069    284904.75    4197438.8 -0.0002034548 0.0005476537 -3.3135217e-05 
  982000    2.4472697 0.0021882244    284904.75    4201726.7 -0.00034274982 0.00049098223 -0.00010782909 
  983000    2.4438515 0.0021836472    284904.75    4206084.6 -0.00035325307 0.00050155232 -0.00011303301 
  984000     2.443768 0.0021832181    284904.75    4210450.4 -0.00030582371 0.00049851034 -5.8982826e-05 
  985000    2.4463678 0.0021787513    284904.75      4214750 -0.00037259405 0.00052427338 4.203679e-06 
  986000    2.4435078 0.0021837936    284904.75    4219221.8 -0.00032878781  0.000502541 -5.7648815e-05 
  987000    2.4429794 0.0021843786    284904.75    4223674.7 -0.00033563858 0.0004486267 -4.3773502e-05 
  988000    2.4446306 0.0021822268    284904.75      4228005 -0.00033614153 0.00046760317 -0.00010315157 
  989000    2.4455856 0.0022060796    284904.75      4232410 -0.00030036226 0.00041148378 -6.8985216e-05 
  990000    2.4488307 0.0021784984    284904.75    4236880.9 -0.00027689624 0.00044142872 -9.3090386e-05 
  991000    2.4427841 0.0021851662    284904.75    4241364.3 -0.00028896196 0.00043774521 -1.2408318e-05 
  992000    2.4455472 0.0021845852    284904.75    4245864.7 -0.00037471476 0.0005038854 2.6642562e-05 
  993000    2.4478778 0.0021795431    284904.75    4250336.7 -0.00041646176 0.00050311355 0.00013404628 
  994000    2.4450162 0.0022184321    284904.75    4254936.2 -0.0004036164 0.00056866848 3.8700468e-05 
  995000    2.4446688 0.0021997683    284904.75    4259680.3 -0.00038784557 0.00053433119 8.4881664e-05 
  996000    2.4450108  0.002206767    284904.75    4264308.5 -0.00039230712 0.00073870961 3.0605154e-05 
  997000    2.4435463  0.002183499    284904.75    4268723.8 -0.00038563763 0.00079153329 -7.8610703e-05 
  998000    2.4457921 0.0021883675    284904.75    4273267.3 -0.00031733908 0.0007079579 -4.4876204e-05 
  999000    2.4477254 0.0021789344    284904.75    4277859.5 -6.4283478e-05 0.00077822759 4.528997e-05 
 1000000    2.4433248 0.0021838538    284904.75    4282535.6 -5.7440375e-05 0.00080106989 3.6407868e-05 
Loop time of 210.502 on 1 procs for 1000000 steps with 256 atoms

Pair  time (%) = 2.52433 (1.1992)
Neigh time (%) = 15.5713 (7.39724)
Comm  time (%) = 1.75465 (0.833557)
Outpt time (%) = 0.0868464 (0.0412568)
Other time (%) = 190.565 (90.5288)

Nlocal:    256 ave 256 max 256 min
Histogram: 1 0 0 0 0 0 0 0 0 0
Nghost:    85 ave 85 max 85 min
Histogram: 1 0 0 0 0 0 0 0 0 0
Neighs:    10 ave 10 max 10 min
Histogram: 1 0 0 0 0 0 0 0 0 0

Total # of neighbors = 10
Ave neighs/atom = 0.0390625
Neighbor list builds = 79356
Dangerous builds = 0
#	run			10000
	unfix			1
	uncompute		myKE
	uncompute		myPE
	uncompute		myStress
	uncompute		flux
	uncompute		myDis
	unfix			JJ

	next seed
	next iseed
jump lmp.in.gk loop_seed
