
#------------ NVE rescale ---------------------------------------------------------------------

	velocity 		all create ${T_run} ${seed} rot yes dist gaussian
	velocity 		all create 2.6455576526946114058 ${seed} rot yes dist gaussian
	velocity 		all create 2.6455576526946114058 22222 rot yes dist gaussian

	fix 			1 all nve
	fix 			2 all temp/rescale 1 ${T_run} ${T_run} 0.01 1.0
	fix 			2 all temp/rescale 1 2.6455576526946114058 ${T_run} 0.01 1.0
	fix 			2 all temp/rescale 1 2.6455576526946114058 2.6455576526946114058 0.01 1.0
	timestep		${dt}
	timestep		0.0020000000000000000416
	thermo_style  		custom step temp press etotal vol
	thermo			1000
	run             	200000
Memory usage per processor = 2.13486 Mbytes
Step Temp Press TotEng Volume 
       0    2.6455577 0.0024007508   -1.5687558    279726.26 
    1000    2.6362481 0.0019355026    3.0482804    279726.26 
    2000    2.6472928 0.0020664889    3.2315015    279726.26 
    3000    2.6445086 0.0024109842    3.2618142    279726.26 
    4000    2.6520018 0.0021977877    3.2464857    279726.26 
    5000    2.6466392   0.00216508    3.3073487    279726.26 
    6000    2.6443827 0.0021659735    3.2626542    279726.26 
    7000    2.6509117 0.0023775732    3.2635074    279726.26 
    8000    2.6442884 0.0022366789    3.3128455    279726.26 
    9000    2.6497805 0.0021831864    3.3478558    279726.26 
   10000    2.6483788  0.002206322    3.3489152    279726.26 
   11000    2.6494811 0.0022595818    3.3813259    279726.26 
   12000    2.6474801 0.0023585591    3.3514988    279726.26 
   13000    2.6451184 0.0023111871    3.3638656    279726.26 
   14000    2.6472404 0.0023258417    3.3946951    279726.26 
   15000     2.637837 0.0022214581    3.3944732    279726.26 
   16000    2.6407107 0.0022196315    3.3948081    279726.26 
   17000    2.6468619 0.0023183806    3.3950213    279726.26 
   18000    2.6490558 0.0022962809    3.4242842    279726.26 
   19000    2.6455503 0.0022947792    3.4243416    279726.26 
   20000    2.6513201 0.0023049554    3.4551282    279726.26 
   21000    2.6379952  0.002230313    3.4550814    279726.26 
   22000    2.6464484 0.0022358142    3.4550963    279726.26 
   23000    2.6464425 0.0022561177    3.4551517    279726.26 
   24000    2.6551275 0.0023228841    3.4561638    279726.26 
   25000    2.6426519 0.0022747929    3.4716264    279726.26 
   26000     2.650383 0.0022626054    3.5172068    279726.26 
   27000    2.6473187 0.0023240839    3.5170753    279726.26 
   28000     2.643939 0.0021821438    3.5166556    279726.26 
   29000    2.6372691 0.0023654839     3.531606    279726.26 
   30000    2.6523893 0.0023618514    3.5467541    279726.26 
   31000    2.6401573 0.0023209008    3.5628939    279726.26 
   32000    2.6368538  0.002309678    3.5778915    279726.26 
   33000    2.6444484 0.0023274924    3.5774304    279726.26 
   34000    2.6522669 0.0023174577    3.6073903    279726.26 
   35000    2.6435155 0.0023349164    3.5937431    279726.26 
   36000    2.6527366 0.0023643792    3.5940999    279726.26 
   37000    2.6518913 0.0024024219    3.6095865    279726.26 
   38000    2.6537135 0.0023383038    3.6243266    279726.26 
   39000    2.6484332 0.0023473347     3.624551    279726.26 
   40000    2.6438738 0.0024455683    3.6245501    279726.26 
   41000    2.6480404 0.0024461722    3.6242831    279726.26 
   42000    2.6430738  0.002332746    3.6242064    279726.26 
   43000    2.6555109  0.002391102    3.6394166    279726.26 
   44000    2.6443536   0.00237925    3.6389961    279726.26 
   45000    2.6387635 0.0023053694    3.6391338    279726.26 
   46000    2.6511209 0.0023047927    3.6538273    279726.26 
   47000    2.6448538 0.0023507048    3.6425939    279726.26 
   48000    2.6401753 0.0023724522    3.6425962    279726.26 
   49000    2.6519832 0.0023188716    3.6571907    279726.26 
   50000    2.6370106 0.0023143811    3.6423472    279726.26 
   51000    2.6503872 0.0024180685    3.6420457    279726.26 
   52000    2.6505692  0.002354777    3.6415369    279726.26 
   53000    2.6467138 0.0024259871    3.6415348    279726.26 
   54000    2.6530788  0.002339022    3.6563506    279726.26 
   55000    2.6449833 0.0023107866    3.6563188    279726.26 
   56000    2.6513191 0.0023370022    3.6878711    279726.26 
   57000    2.6462266 0.0023582111    3.6728124    279726.26 
   58000    2.6498449 0.0023945329    3.6893811    279726.26 
   59000     2.655504 0.0023763143    3.6895766    279726.26 
   60000    2.6457497 0.0023356635    3.6900602    279726.26 
   61000    2.6374548 0.0023248534    3.6597628    279726.26 
   62000    2.6489398  0.002459163    3.7053736    279726.26 
   63000    2.6453292 0.0024414045      3.69074    279726.26 
   64000    2.6414652 0.0023735859     3.704063    279726.26 
   65000    2.6498314 0.0022883871    3.7217129    279726.26 
   66000    2.6440359  0.002364349    3.7064501    279726.26 
   67000    2.6396257 0.0023775405    3.7219519    279726.26 
   68000     2.651856 0.0023575388    3.7369133    279726.26 
   69000    2.6410528 0.0023890413    3.7218883    279726.26 
   70000    2.6435262  0.002331713    3.7213874    279726.26 
   71000     2.644614 0.0023264547     3.721481    279726.26 
   72000    2.6417702 0.0023559955    3.7168303    279726.26 
   73000     2.646226 0.0023239364    3.7318037    279726.26 
   74000    2.6464136 0.0023711625    3.7471062    279726.26 
   75000    2.6465292 0.0024354763    3.7473902    279726.26 
   76000    2.6479988 0.0023848554    3.7472826    279726.26 
   77000    2.6398793 0.0023537593    3.7474621    279726.26 
   78000    2.6534123 0.0023297495    3.7477167    279726.26 
   79000    2.6496412  0.002355531    3.7778472    279726.26 
   80000    2.6363658  0.002403284    3.7778475    279726.26 
   81000    2.6490123  0.002371952     3.792996    279726.26 
   82000    2.6464347  0.002384349    3.7780184    279726.26 
   83000    2.6509764 0.0024114056    3.8109553    279726.26 
   84000    2.6460169 0.0024161008     3.796372    279726.26 
   85000    2.6455577 0.0024782858     3.811936    279726.26 
   86000    2.6501548 0.0023529657    3.7971512    279726.26 
   87000    2.6415986  0.002408978     3.797159    279726.26 
   88000    2.6526167 0.0023924839     3.812564    279726.26 
   89000     2.639476 0.0024045921    3.7974215    279726.26 
   90000    2.6528389  0.002406124    3.8132697    279726.26 
   91000     2.645598 0.0023855044     3.813319    279726.26 
   92000    2.6474685 0.0023832869    3.8133194    279726.26 
   93000    2.6434656 0.0023582925    3.7988614    279726.26 
   94000    2.6439311 0.0023557532    3.8137617    279726.26 
   95000    2.6399786 0.0023435765    3.7986328    279726.26 
   96000    2.6464869 0.0024314737    3.8130939    279726.26 
   97000    2.6511868 0.0023649052     3.813094    279726.26 
   98000    2.6516094 0.0023658472    3.8138677    279726.26 
   99000    2.6491505 0.0023625301    3.8160977    279726.26 
  100000    2.6454111 0.0024266017    3.8160828    279726.26 
  101000    2.6476296 0.0023709837    3.8162206    279726.26 
  102000     2.644798 0.0024215814    3.8162276    279726.26 
  103000    2.6500064 0.0023694521    3.8464295    279726.26 
  104000    2.6446352  0.002409688    3.8464278    279726.26 
  105000    2.6486458 0.0023673892     3.846427    279726.26 
  106000    2.6449336 0.0023865497    3.8464272    279726.26 
  107000    2.6508417 0.0023711835    3.8464286    279726.26 
  108000    2.6450149 0.0023699278    3.8463457    279726.26 
  109000    2.6505007 0.0024277477     3.846343    279726.26 
  110000    2.6505147 0.0023606448    3.8496633    279726.26 
  111000    2.6461675 0.0024154088    3.8496625    279726.26 
  112000    2.6420096 0.0023933644    3.8505471    279726.26 
  113000    2.6474756 0.0024235274    3.8520458    279726.26 
  114000    2.6486241 0.0024007404    3.8520463    279726.26 
  115000    2.6482411 0.0024459118     3.867609    279726.26 
  116000    2.6437953 0.0024118546    3.8531194    279726.26 
  117000    2.6540216 0.0024779387     3.869424    279726.26 
  118000    2.6452146 0.0023987548    3.8539999    279726.26 
  119000    2.6523815 0.0024405038    3.8690428    279726.26 
  120000    2.6459388 0.0023750757    3.8690416    279726.26 
  121000    2.6455475 0.0023518889    3.8690418    279726.26 
  122000    2.6508341 0.0024471238    3.8690182    279726.26 
  123000    2.6394952 0.0024514042    3.8540058    279726.26 
  124000    2.6533401 0.0023460489    3.8709489    279726.26 
  125000    2.6416404 0.0023483239    3.8571258    279726.26 
  126000    2.6465987 0.0023579989     3.872085    279726.26 
  127000    2.6519643 0.0024012517      3.88707    279726.26 
  128000    2.6542688 0.0024216928    3.8890752    279726.26 
  129000    2.6445584 0.0023887868    3.8740915    279726.26 
  130000    2.6427968 0.0023876985    3.8740914    279726.26 
  131000     2.647792 0.0023858698    3.8755933    279726.26 
  132000    2.6428254 0.0024060063    3.8756857    279726.26 
  133000      2.65405  0.002386969    3.8906276    279726.26 
  134000     2.641461 0.0024110357    3.8906305    279726.26 
  135000    2.6430066 0.0024220285    3.8906262    279726.26 
  136000    2.6468492 0.0024192124    3.8907219    279726.26 
  137000    2.6485318 0.0023742885    3.8907212    279726.26 
  138000    2.6442432 0.0024816346    3.9079265    279726.26 
  139000    2.6418672 0.0024016963    3.8925715    279726.26 
  140000    2.6379475 0.0024251742    3.8775003    279726.26 
  141000    2.6380081 0.0024415154    3.8926741    279726.26 
  142000    2.6438626 0.0024120911     3.892164    279726.26 
  143000    2.6415129 0.0023873312    3.8921625    279726.26 
  144000    2.6515454 0.0023972949    3.8927782    279726.26 
  145000    2.6467808 0.0024022486    3.8927792    279726.26 
  146000    2.6427558 0.0023827543    3.8927774    279726.26 
  147000    2.6394293 0.0023820794    3.8927801    279726.26 
  148000    2.6458697 0.0023708439    3.8925996    279726.26 
  149000    2.6458064 0.0023837625    3.8926483    279726.26 
  150000    2.6486584 0.0024234215    3.8955492    279726.26 
  151000    2.6431446 0.0023663409    3.8955489    279726.26 
  152000    2.6433051 0.0024036542    3.8955488    279726.26 
  153000    2.6444783 0.0024194542    3.8961612    279726.26 
  154000    2.6445267 0.0023994483    3.8961628    279726.26 
  155000    2.6438615 0.0024531117    3.8961635    279726.26 
  156000     2.643306 0.0023702906    3.8961631    279726.26 
  157000    2.6434097 0.0024126851    3.8961638    279726.26 
  158000    2.6452384  0.002404682    3.8961633    279726.26 
  159000    2.6456032   0.00241671    3.8961619    279726.26 
  160000    2.6440889 0.0024129987    3.8976705    279726.26 
  161000    2.6481357 0.0024176958    3.8976718    279726.26 
  162000    2.6456996  0.002417188    3.8981388    279726.26 
  163000    2.6469865  0.002384897    3.8997047    279726.26 
  164000    2.6418425 0.0024009984    3.8997039    279726.26 
  165000    2.6544173 0.0024074439    3.9151547    279726.26 
  166000    2.6411456 0.0023785262    3.8997004    279726.26 
  167000    2.6445751 0.0024031605    3.9002781    279726.26 
  168000    2.6399908 0.0023822544    3.9020146    279726.26 
  169000    2.6441903 0.0023886278    3.9020163    279726.26 
  170000    2.6402923 0.0023732503    3.9020162    279726.26 
  171000    2.6379008  0.002371943    3.9029579    279726.26 
  172000     2.654847  0.002393448    3.9180364    279726.26 
  173000    2.6506036 0.0023960435    3.9180366    279726.26 
  174000    2.6433039 0.0024177647      3.90299    279726.26 
  175000    2.6523805 0.0023950733    3.9180521    279726.26 
  176000    2.6486634 0.0024404134    3.9180523    279726.26 
  177000    2.6490027 0.0024203117    3.9180549    279726.26 
  178000    2.6401844 0.0023773374    3.9030328    279726.26 
  179000     2.638408 0.0024144533    3.9030346    279726.26 
  180000    2.6551718 0.0024080968    3.9184173    279726.26 
  181000    2.6407246 0.0023939264    3.9042096    279726.26 
  182000    2.6455081  0.002401697    3.9192072    279726.26 
  183000    2.6516558 0.0024036034    3.9192055    279726.26 
  184000    2.6521252 0.0024168863    3.9192031    279726.26 
  185000    2.6469088 0.0023985129    3.9192039    279726.26 
  186000    2.6494906 0.0024232372    3.9192046    279726.26 
  187000    2.6413486 0.0023913498    3.9041642    279726.26 
  188000    2.6417348 0.0024110248    3.9191544    279726.26 
  189000    2.6476624  0.002395654    3.9213331    279726.26 
  190000    2.6527516 0.0024265092    3.9213318    279726.26 
  191000    2.6450179 0.0023739218    3.9061664    279726.26 
  192000    2.6442191 0.0023949058    3.9213312    279726.26 
  193000    2.6462357 0.0023894194    3.9227696    279726.26 
  194000    2.6479929 0.0023999731    3.9227664    279726.26 
  195000    2.6427868 0.0023988964    3.9127308    279726.26 
  196000    2.6456606 0.0023711709    3.9140551    279726.26 
  197000    2.6474751 0.0023959851    3.9140043    279726.26 
  198000    2.6487805 0.0023924174    3.9290753    279726.26 
  199000    2.6519593 0.0024223343    3.9290752    279726.26 
  200000     2.642628 0.0023916096     3.914058    279726.26 
Loop time of 5.59626 on 1 procs for 200000 steps with 256 atoms

Pair  time (%) = 0.864344 (15.445)
Neigh time (%) = 3.22379 (57.6062)
Comm  time (%) = 0.328381 (5.86787)
Outpt time (%) = 0.0106132 (0.189648)
Other time (%) = 1.16913 (20.8913)

Nlocal:    256 ave 256 max 256 min
Histogram: 1 0 0 0 0 0 0 0 0 0
Nghost:    73 ave 73 max 73 min
Histogram: 1 0 0 0 0 0 0 0 0 0
Neighs:    19 ave 19 max 19 min
Histogram: 1 0 0 0 0 0 0 0 0 0

Total # of neighbors = 19
Ave neighs/atom = 0.0742188
Neighbor list builds = 17012
Dangerous builds = 2
#	run             	1000
	unfix 			1
	unfix 			2

#------------ NVE -----------------------------------------------------------------------------

	fix 			1 all nve
	timestep		${dt}
	timestep		0.0020000000000000000416
	thermo_style  		custom step temp press etotal vol
	thermo			1000
	run             	100000
Memory usage per processor = 2.13486 Mbytes
Step Temp Press TotEng Volume 
  200000     2.642628 0.0023916096     3.914058    279726.26 
  201000    2.6394283  0.002390407    3.9140563    279726.26 
  202000    2.6419259 0.0024194568    3.9140567    279726.26 
  203000    2.6450801 0.0024284141    3.9140545    279726.26 
  204000    2.6404334 0.0024400529     3.914057    279726.26 
  205000    2.6351709  0.002467315    3.9140461    279726.26 
  206000    2.6459246 0.0023768375    3.9140564    279726.26 
  207000    2.6443188 0.0023942141    3.9140561    279726.26 
  208000    2.6446292 0.0024029239    3.9140565    279726.26 
  209000    2.6365194 0.0023829264    3.9140567    279726.26 
  210000     2.638497 0.0023988455    3.9140574    279726.26 
  211000    2.6347398 0.0024084994    3.9140592    279726.26 
  212000    2.6434562 0.0024305738    3.9140522    279726.26 
  213000    2.6346844 0.0023947861    3.9140556    279726.26 
  214000    2.6331897 0.0023838933    3.9140544    279726.26 
  215000    2.6312318 0.0023894924    3.9140516    279726.26 
  216000    2.6398027 0.0024227574    3.9140494    279726.26 
  217000    2.6323512 0.0023886718    3.9140526    279726.26 
  218000    2.6259146 0.0023853267    3.9140512    279726.26 
  219000    2.6257083 0.0023787822    3.9140532    279726.26 
  220000    2.6262645 0.0023954478    3.9140475    279726.26 
  221000    2.6259705 0.0024046124    3.9140524    279726.26 
  222000     2.619855 0.0024280345    3.9140505    279726.26 
  223000    2.6229446 0.0023845802    3.9140484    279726.26 
  224000    2.6258449 0.0023884412    3.9140485    279726.26 
  225000    2.6245563 0.0023823022    3.9140512    279726.26 
  226000    2.6254787 0.0023841562    3.9140526    279726.26 
  227000    2.6246364 0.0024367905    3.9140562    279726.26 
  228000     2.624458 0.0023798196    3.9140545    279726.26 
  229000    2.6255385   0.00238089    3.9140545    279726.26 
  230000    2.6203401 0.0023860789     3.914056    279726.26 
  231000    2.6261533  0.002383562    3.9140541    279726.26 
  232000    2.6229837 0.0023837529    3.9140547    279726.26 
  233000     2.630514 0.0023792528    3.9140567    279726.26 
  234000    2.6260363 0.0023828304    3.9140593    279726.26 
  235000    2.6229106 0.0023818881    3.9140608    279726.26 
  236000    2.6214521 0.0024529325    3.9140588    279726.26 
  237000     2.626551 0.0024011859    3.9140578    279726.26 
  238000    2.6220625 0.0023843602    3.9140586    279726.26 
  239000    2.6244207 0.0023823307    3.9140586    279726.26 
  240000    2.6225452 0.0024192681     3.914057    279726.26 
  241000    2.6207691 0.0023856617    3.9140561    279726.26 
  242000    2.6216054  0.002383218    3.9140572    279726.26 
  243000     2.620675 0.0023845476    3.9140564    279726.26 
  244000    2.6249756 0.0023825233    3.9140531    279726.26 
  245000    2.6309154 0.0023940194    3.9140539    279726.26 
  246000    2.6236731 0.0023929273    3.9140555    279726.26 
  247000    2.6247135 0.0023943087    3.9140519    279726.26 
  248000    2.6236876 0.0023817724    3.9140559    279726.26 
  249000    2.6265759 0.0023883706    3.9140548    279726.26 
  250000    2.6210141 0.0023852377    3.9140576    279726.26 
  251000     2.616257  0.002454081    3.9140594    279726.26 
  252000     2.623255 0.0023813021    3.9140565    279726.26 
  253000    2.6205658 0.0023854673    3.9140569    279726.26 
  254000    2.6256082 0.0023945415    3.9140551    279726.26 
  255000    2.6240829 0.0023834363    3.9140553    279726.26 
  256000     2.625097  0.002385875    3.9140559    279726.26 
  257000    2.6234415 0.0023930372     3.914057    279726.26 
  258000    2.6214589 0.0023843896    3.9140547    279726.26 
  259000    2.6226938 0.0023841464    3.9140546    279726.26 
  260000    2.6241122 0.0023797693    3.9140551    279726.26 
  261000    2.6216844 0.0024218937    3.9140433    279726.26 
  262000      2.62062  0.002385687    3.9140508    279726.26 
  263000    2.6200534 0.0023865597    3.9140506    279726.26 
  264000    2.6197451 0.0023874341    3.9140501    279726.26 
  265000    2.6223946 0.0023979706    3.9140507    279726.26 
  266000    2.6267772 0.0024014043     3.914048    279726.26 
  267000    2.6206616 0.0023856864    3.9140506    279726.26 
  268000    2.6228617 0.0024052405    3.9140528    279726.26 
  269000    2.6243757  0.002384819    3.9140517    279726.26 
  270000    2.6240435 0.0023819684    3.9140496    279726.26 
  271000    2.6277285 0.0023851896    3.9140502    279726.26 
  272000    2.6229729 0.0023818001      3.91405    279726.26 
  273000    2.6220814 0.0023835567    3.9140512    279726.26 
  274000    2.6244379 0.0023813505    3.9140528    279726.26 
  275000     2.624228  0.002380193    3.9140537    279726.26 
  276000     2.628613 0.0024077633    3.9140529    279726.26 
  277000    2.6213814 0.0023850128    3.9140533    279726.26 
  278000    2.6205347 0.0023859834    3.9140516    279726.26 
  279000    2.6245967 0.0023885929    3.9140527    279726.26 
  280000     2.621471 0.0023857785     3.914052    279726.26 
  281000    2.6221988 0.0023940609    3.9140494    279726.26 
  282000    2.6141401   0.00248583    3.9140478    279726.26 
  283000    2.6224335 0.0023836597     3.914053    279726.26 
  284000    2.6206202 0.0023859444    3.9140544    279726.26 
  285000    2.6229636 0.0023928536    3.9140538    279726.26 
  286000    2.6273631 0.0023887167     3.914056    279726.26 
  287000    2.6226403 0.0023855016     3.914058    279726.26 
  288000    2.6215797 0.0023837887     3.914061    279726.26 
  289000     2.626899 0.0023869059    3.9140602    279726.26 
  290000    2.6278372 0.0023995163    3.9140611    279726.26 
  291000    2.6247123 0.0023790413    3.9140623    279726.26 
  292000    2.6260266 0.0023824434    3.9140643    279726.26 
  293000    2.6230214 0.0023850436    3.9140651    279726.26 
  294000    2.6241059 0.0023985136    3.9140657    279726.26 
  295000    2.6256082 0.0023819555    3.9140687    279726.26 
  296000    2.6234492 0.0023804792    3.9140692    279726.26 
  297000    2.6210408  0.002385014    3.9140657    279726.26 
  298000     2.623332 0.0023865851    3.9140662    279726.26 
  299000     2.622114 0.0024266015    3.9140665    279726.26 
  300000    2.6202601  0.002386105    3.9140633    279726.26 
Loop time of 2.169 on 1 procs for 100000 steps with 256 atoms

Pair  time (%) = 0.176568 (8.14053)
Neigh time (%) = 1.35287 (62.3729)
Comm  time (%) = 0.149969 (6.91422)
Outpt time (%) = 0.00546956 (0.25217)
Other time (%) = 0.484124 (22.3202)

Nlocal:    256 ave 256 max 256 min
Histogram: 1 0 0 0 0 0 0 0 0 0
Nghost:    74 ave 74 max 74 min
Histogram: 1 0 0 0 0 0 0 0 0 0
Neighs:    10 ave 10 max 10 min
Histogram: 1 0 0 0 0 0 0 0 0 0

Total # of neighbors = 10
Ave neighs/atom = 0.0390625
Neighbor list builds = 7300
Dangerous builds = 0
#	run             	10000
	unfix 			1

#------------ kappa -------------------------------------------------------------------------
log 	log_kappa_${iseed}.lammps
log 	log_kappa_2.lammps
