	reset_timestep  	0
	fix 			1 all nve
	compute   		myKE all ke/atom
	compute   		myPE all pe/atom
	compute   		myStress all stress/atom virial
	compute   		flux all heat/flux myKE myPE myStress
	variable  		Jx equal c_flux[1]/vol
	variable  		Jy equal c_flux[2]/vol
	variable  		Jz equal c_flux[3]/vol
	fix       		JJ all ave/correlate $s $p $d c_flux[1] c_flux[2] c_flux[3] type auto file J0Jt_${iseed}.dat ave running
	fix       		JJ all ave/correlate 5 $p $d c_flux[1] c_flux[2] c_flux[3] type auto file J0Jt_${iseed}.dat ave running
	fix       		JJ all ave/correlate 5 100000 $d c_flux[1] c_flux[2] c_flux[3] type auto file J0Jt_${iseed}.dat ave running
	fix       		JJ all ave/correlate 5 100000 500000 c_flux[1] c_flux[2] c_flux[3] type auto file J0Jt_${iseed}.dat ave running
	fix       		JJ all ave/correlate 5 100000 500000 c_flux[1] c_flux[2] c_flux[3] type auto file J0Jt_8.dat ave running
#	fix       		JJ all ave/correlate $s $p $d c_flux[1] c_flux[2] c_flux[3] type auto ave running
#	dump			JJ all custom 1000000 J0Jt.dat f_JJ[3] f_JJ[4] f_JJ[5]
	compute 		myDis all msd
	thermo_style 		custom step temp press vol c_myDis[4] v_Jx v_Jy v_Jz
	thermo			1000
	timestep		${dt}
	timestep		0.0020000000000000000416
	run			1000000
Memory usage per processor = 3.6416 Mbytes
Step Temp Press Volume myDis[4] Jx Jy Jz 
       0    2.4472669 0.0021992046    284904.75            0 -4.173399e-05 9.3527351e-05 0.00039732052 
    1000     2.449395 0.0021813247    284904.75    29.201298 -2.8245928e-05 5.2204228e-05 0.00039251741 
    2000    2.4482058 0.0021758778    284904.75    115.75699 -0.0001330058 9.8731849e-06 0.00037267132 
    3000    2.4459265 0.0021749709    284904.75    257.71105 -0.00012112376 1.7402137e-05 0.00037472094 
    4000    2.4459686 0.0021861457    284904.75    457.20975 -0.00016745098 -7.5882132e-05 0.00036173094 
    5000    2.4471264 0.0022000412    284904.75    710.52162 -0.0001599289 -7.1232154e-05 0.00031482419 
    6000    2.4467918 0.0021871948    284904.75    1011.2865 -0.00019107708 -0.00014678012 0.00022134551 
    7000    2.4444737 0.0021835909    284904.75    1365.8983 -0.00018210036 -0.00010744162 0.00026774702 
    8000    2.4471807 0.0022260758    284904.75    1775.4966 -0.00013542751 -0.00019844541 0.00022966366 
    9000    2.4434058 0.0021766191    284904.75    2235.5664 -0.00015750054 -5.9026602e-05 0.00017482504 
   10000    2.4461823 0.0021886659    284904.75    2750.4364 -0.00013947889 -4.4800577e-05 0.00018593143 
   11000    2.4397207 0.0021757274    284904.75    3315.9078 -0.00016342618 1.4041151e-05 0.00019779134 
   12000    2.4394236 0.0021733285    284904.75    3928.7366 -0.00017258884 -2.0188813e-05 0.00015692447 
   13000    2.4391301 0.0021821798    284904.75    4593.1412 -0.00019033239 3.2770514e-05 0.00015231584 
   14000    2.4415526 0.0021717353    284904.75    5301.4709 -0.00012248675 4.9333756e-05 0.00017977499 
   15000    2.4400996 0.0021733461    284904.75    6057.5529 -0.00015760315 0.00012085369 0.00016220299 
   16000    2.4339251 0.0022659677    284904.75    6867.9077 -0.0002074698 5.2397393e-05 0.0001519529 
   17000    2.4405195 0.0021752227    284904.75    7729.8391 -0.00018054796 8.5584528e-05 0.00015712503 
   18000    2.4376385 0.0021777908    284904.75    8646.9711 -0.00013543875 0.00012935359 0.00018002915 
   19000    2.4403824 0.0021937759    284904.75    9619.7367 -0.00016489468 0.00017358125 0.00020312994 
   20000     2.440316 0.0021731553    284904.75    10644.665 -0.00018183801 8.8818336e-05 0.00015264892 
   21000    2.4421341 0.0021747541    284904.75     11713.15 -0.0001788015 -7.9372668e-07 0.0001626083 
   22000    2.4388845 0.0022320752    284904.75    12823.252 -0.00022181721 -9.0243563e-05 0.00020042859 
   23000    2.4382935 0.0021756036    284904.75    13973.982 -0.00013641286 -2.5502215e-05 0.00025546476 
   24000    2.4407465 0.0021886453    284904.75    15164.918 -0.00016706852 6.6863418e-05 0.00027514865 
   25000    2.4412374 0.0021755743    284904.75    16405.117 -0.00014072761 6.3654788e-05 0.00024723938 
   26000    2.4381506 0.0021758913    284904.75    17701.274 -0.00014357031 6.6034799e-05 0.00022723861 
   27000    2.4366731 0.0021784039    284904.75    19041.976 -0.00014233233 6.2600662e-05 0.00020468237 
   28000    2.4379257 0.0021761977    284904.75    20430.103 -8.0401435e-05 0.00013055508 0.0001692696 
   29000     2.440664 0.0021789555    284904.75    21862.213 3.9091719e-05 0.00014624373 8.5866955e-05 
   30000     2.437603  0.002176863    284904.75    23312.714 -1.2956378e-06 -9.9410477e-06 0.00013005926 
   31000    2.4437406 0.0021739363    284904.75    24803.453 -2.9134757e-05 -3.102987e-05 0.00012593629 
   32000    2.4399595 0.0021761847    284904.75    26315.551 7.9587877e-05 2.6230622e-05 0.00020192973 
   33000    2.4392718 0.0021735445    284904.75    27870.457 7.8503235e-05 3.1815117e-05 0.00012596825 
   34000     2.439263 0.0021841463    284904.75    29460.526 9.7464992e-05 2.8038869e-05 0.00012030273 
   35000    2.4383951 0.0022035623    284904.75    31099.591 0.00014077135 2.9464547e-05 0.0001001205 
   36000    2.4394911 0.0021742605    284904.75    32750.767 0.00011334302 4.9680926e-05 9.5970736e-05 
   37000     2.443381 0.0021830998    284904.75    34442.874 0.00013786133 6.9112935e-05 0.00019833819 
   38000    2.4384726  0.002178614    284904.75    36166.028 0.00013481095 4.3728094e-06 0.00020611132 
   39000    2.4416163 0.0021778753    284904.75    37939.546 0.00022108641 3.8754416e-06 0.00024089704 
   40000    2.4403471 0.0021730102    284904.75    39741.193 0.00019013947 3.1263783e-05 0.00024334229 
   41000    2.4265588 0.0022873742    284904.75    41589.847 9.0686179e-05 0.00012541313 0.00037562699 
   42000    2.4424106 0.0021783753    284904.75    43439.792 0.00016564251 5.7585101e-05 0.00025871099 
   43000    2.4393449 0.0021771277    284904.75    45328.858 0.00017700469 2.6750195e-05 0.00023722704 
   44000    2.4385497 0.0021766421    284904.75    47273.118 0.00015944403 2.8668834e-05 0.00022753551 
   45000    2.4440338 0.0021728847    284904.75    49268.776 0.00011985994 -5.6045924e-06 0.0001961907 
   46000    2.4415713 0.0021750457    284904.75     51307.68 0.0001309557 -4.990966e-06 0.00020558296 
   47000    2.4411758  0.002198501    284904.75    53375.789 6.9930381e-05 9.0279225e-05 0.00023958263 
   48000    2.4419178 0.0021724733    284904.75    55500.734 8.1933877e-05 8.4432135e-05 0.00027989062 
   49000    2.4429066 0.0021736916    284904.75    57672.248 0.00011961386 0.00016601133 0.00033694928 
   50000    2.4401589 0.0022353124    284904.75    59887.111 0.00010903842 0.00014288328 0.0003297511 
   51000    2.4427096  0.002192856    284904.75    62134.895 0.00010801071 0.00015735436 0.00030588979 
   52000    2.4388144 0.0021827093    284904.75    64430.971 0.0001152139 0.00010452914 0.0002513958 
   53000    2.4385092 0.0021768857    284904.75    66753.793 0.00022353864 0.00010942306 0.00021899958 
   54000    2.4448433 0.0021863251    284904.75    69118.844 -3.3517497e-05 0.00013265292 0.00026008212 
   55000    2.4372004 0.0021774493    284904.75    71491.442 -3.5585944e-05 0.00013444673 0.0002715312 
   56000    2.4413088 0.0021821816    284904.75    73896.665 -9.1487779e-05 0.00029349567 0.00025230969 
   57000     2.424528 0.0022954054    284904.75    76311.563 -0.00047815815 -2.3773354e-05 0.00053078716 
   58000     2.437213  0.002177104    284904.75    78630.319 -0.00032412592 0.00022717655 0.00019262575 
   59000    2.4397533 0.0021745063    284904.75    80940.959 -0.00030108251 0.00016935114 3.8511629e-05 
   60000    2.4395302 0.0021751163    284904.75    83285.247 -0.00030307382 0.00018690523 2.4353199e-05 
   61000    2.4386038 0.0021906812    284904.75    85671.741 -0.00035420828 0.0002394703 -2.0792469e-05 
   62000    2.4371596  0.002177416    284904.75    88106.064 -0.00031025434 0.00017876013 3.1888416e-05 
   63000    2.4384488 0.0021887027    284904.75    90592.856 -0.00032455092 0.00021158488 2.2025844e-05 
   64000    2.4370022 0.0021772997    284904.75    93101.624 -0.00027132622 0.00019535942 0.00010224525 
   65000    2.4395121 0.0021745351    284904.75    95618.326 -0.00033322204 0.00019190196 0.00014175421 
   66000    2.4389217 0.0021744553    284904.75    98169.448 -0.00022044383 0.00012138267 0.00023666806 
   67000    2.4391632  0.002177974    284904.75    100727.11 -0.00025609661 6.2602567e-05 0.00026317199 
   68000    2.4377914 0.0021761273    284904.75    103307.38 -0.00019884809 2.2934645e-05 0.00022726146 
   69000      2.43814 0.0021756767    284904.75    105931.21 -0.00022342232 3.3250685e-05 0.00022421612 
   70000    2.4392091 0.0021848099    284904.75    108617.27 -0.0002178155 6.6764857e-07 0.00021198024 
   71000    2.4373339 0.0021778876    284904.75    111347.97 -0.00020583281 4.5587268e-05 0.00011228786 
   72000    2.4442821 0.0021760464    284904.75    114129.93 -0.00020439871 2.8921462e-05 0.00012492488 
   73000    2.4378486 0.0021953752    284904.75    116956.72 -0.00017552595 -3.3702305e-05 9.4245933e-05 
   74000    2.4388933 0.0021746484    284904.75    119833.58 -0.00014572123 -0.00010044703 0.00014364863 
   75000    2.4405577 0.0021735883    284904.75    122750.64 -0.00011750209 -9.5162065e-05 4.7528707e-05 
   76000    2.4374632 0.0021767873    284904.75    125645.99 -0.00019214512 -3.2490316e-05 4.6467565e-05 
   77000    2.4368734  0.002177319    284904.75    128544.23 -0.00012891898 -2.3132976e-05 0.00014167143 
   78000    2.4364954 0.0021781641    284904.75    131488.61 -0.0001405915 -1.456894e-05 0.00016325372 
   79000    2.4365213 0.0022489406    284904.75    134495.21 -0.00014280568 4.136218e-05 5.1020612e-05 
   80000    2.4440911 0.0021730013    284904.75    137567.04 -0.0001068371 -4.8127609e-05 0.00020700085 
   81000    2.4389297 0.0021761674    284904.75    140627.24 -0.0001016014 -4.3652267e-05 0.00016606334 
   82000    2.4378058 0.0021775342    284904.75    143699.39 -0.00010606886 -3.5833881e-05 0.00015554815 
   83000    2.4380072 0.0021760424    284904.75    146826.95 -8.1166565e-05 -7.7819572e-05 0.00017013578 
   84000    2.4445095  0.002194686    284904.75    150008.61 -3.5783761e-05 -9.5989019e-05 0.00014804189 
   85000    2.4410358 0.0021734953    284904.75    153197.77 -5.8158631e-05 -0.00010423258 0.00015414081 
   86000    2.4369681 0.0021776406    284904.75    156398.04 -7.9285973e-05 -0.00010749216 0.00016547343 
   87000    2.4362371 0.0021789254    284904.75    159646.04 -3.5788335e-05 -0.0001413393 0.00014737192 
   88000    2.4376563 0.0021764357    284904.75    162934.95 -4.348769e-05 -0.00013615523 0.00011760312 
   89000    2.4393986 0.0021945345    284904.75    166161.66 -9.2040729e-05 -6.4128987e-05 0.0001879744 
   90000    2.4375498 0.0021771131    284904.75    169324.18 -0.00013475062 -0.00010126573 7.7708197e-05 
   91000    2.4373195 0.0021768692    284904.75    172524.84 -0.00016319164 -6.4680924e-05 0.00017165913 
   92000    2.4406448 0.0021803125    284904.75    175735.18 -0.00016134237 -0.00013820495 0.00015791998 
   93000    2.4369834 0.0021770922    284904.75    178973.39 -0.00019598726 -0.00010737652 0.00018374984 
   94000    2.4419525 0.0021884932    284904.75    182254.91 -0.000194031 -9.4549357e-05 0.00019940949 
   95000    2.4369388 0.0021776732    284904.75     185561.9 -0.00021374431 -7.5337386e-05 0.00017345935 
   96000    2.4439317 0.0021700152    284904.75    188917.59 -0.00019232536 -3.9725379e-05 0.00019649153 
   97000    2.4389172 0.0021932354    284904.75    192288.63 -0.00014295782 -7.0766834e-05 0.0001854721 
   98000    2.4365255 0.0021783319    284904.75    195701.01 -9.8346348e-05 -4.13332e-06 0.00014667398 
   99000    2.4395797 0.0021737125    284904.75    199170.65 -6.5088874e-05 3.1082598e-06 0.00015587642 
  100000    2.4433111 0.0021820411    284904.75    202642.77 -0.00010718125 -0.00015440628 0.00017538994 
  101000    2.4387895 0.0022199151    284904.75    206101.01 -4.6155362e-05 -1.0158827e-06 0.00015720407 
  102000    2.4393264 0.0021735222    284904.75    209610.41 -0.00013134635 -0.00017989735 0.00021038453 
  103000    2.4426543 0.0021731243    284904.75    213095.94 -9.3737252e-05 -0.0002552453 0.00020322649 
  104000    2.4371176 0.0021768927    284904.75    216584.01 -0.00010018952 -0.00023986151 0.00016088277 
  105000    2.4373079 0.0021769479    284904.75    220125.83 -0.000119481 -0.00029204004 0.00015565746 
  106000    2.4365819 0.0021782463    284904.75    223698.02 -0.00013985121 -0.00025772191 0.00011378128 
  107000    2.4374518 0.0021768327    284904.75    227310.89 -9.8897008e-05 -0.00026260644   0.00012774 
  108000    2.4378117 0.0021763516    284904.75    230965.75 -6.4794417e-05 -0.00027263223 9.6041007e-05 
  109000     2.437675 0.0021781024    284904.75    234659.71 -0.00012692547 -0.00028764221 7.0704131e-05 
  110000    2.4329296  0.002231182    284904.75    238409.82 -0.00010398768 -0.00024734318 5.1554985e-05 
  111000    2.4359321 0.0021796753    284904.75    242148.49 -0.00015661146 -0.00031535787 0.00010708859 
  112000    2.4373754 0.0021772522    284904.75    245892.65 -0.00018949923 -0.00024410914 0.00016474253 
  113000    2.4366317 0.0021779007    284904.75    249578.86 -0.00012718691 -0.00024411117 0.00014496148 
  114000    2.4370229 0.0021778801    284904.75    253255.49 -0.00011638818 -0.0002410289 0.00015612111 
  115000    2.4349209 0.0022256977    284904.75    256968.07 -0.0001153679 -0.00020171091 6.375981e-05 
  116000    2.4369251 0.0021775022    284904.75       260725 -0.00013949901 -0.00021209253 9.2558708e-05 
  117000    2.4387658 0.0021842524    284904.75    264410.72 -6.8187951e-05 -0.00021352914 5.5679481e-05 
  118000    2.4375773 0.0021764744    284904.75     268059.8 -4.0420187e-05 -0.00026695474 0.00011409533 
  119000    2.4390174 0.0021860573    284904.75    271708.72 1.0339203e-05 -0.00024812755 0.00012417677 
  120000    2.4381543 0.0021754901    284904.75    275407.89 3.2706509e-06 -0.00026924636 0.00021673793 
  121000    2.4369443   0.00217754    284904.75    279102.32 -1.3960154e-05 -0.00025460147 0.00024667906 
  122000    2.4386493 0.0021748888    284904.75    282816.86 -2.2520658e-05 -0.00012099238 0.00020234308 
  123000    2.4368329  0.002177939    284904.75    286573.05 -4.6306688e-05 -0.00015808266 0.00023119002 
  124000    2.4429435 0.0021730767    284904.75    290364.58 -1.5793997e-05 -0.00024708082 0.00020862028 
  125000    2.4383025  0.002175666    284904.75    294186.47 -2.5869458e-05 -0.0001668185 0.00031240842 
  126000    2.4441595 0.0021748724    284904.75    298050.43 -1.0197485e-05 -0.00019473704 0.00028223405 
  127000    2.4387851 0.0021751977    284904.75    301952.84 8.4152104e-06 -0.00017109647 0.00026727105 
  128000    2.4417793 0.0021752393    284904.75    305925.82 -0.00013368742 -0.00016986198 0.00035749963 
  129000    2.4407404 0.0021788808    284904.75    309962.18 -0.00017764704 -0.00021097057 0.00030441027 
  130000    2.4371918 0.0021766418    284904.75    314054.29 -0.00020614118 -0.00020020589 0.00032514088 
  131000     2.437246 0.0021768465    284904.75     318162.6 -0.00024757566 -0.00021681285 0.00035539068 
  132000    2.4359325  0.002179426    284904.75    322255.34 -0.00024355616 -0.00021646222 0.00038882912 
  133000    2.4374713 0.0021770671    284904.75    326320.31 -0.00021072626 -0.00026222515 0.0003185204 
  134000    2.4406058 0.0021759871    284904.75    330404.84 -0.00018097733 -0.00028933182 0.00029215801 
  135000    2.4416934  0.002173841    284904.75    334497.88 -0.00015445104 -0.00028582833 0.0002760124 
  136000    2.4416703 0.0021894448    284904.75    338603.88 -0.00020495112 -0.00021452862 0.00021105367 
  137000    2.4434722  0.002177766    284904.75    342726.04 -0.00023066001 -0.00023666341 0.00030227315 
  138000    2.4434577 0.0021724875    284904.75    346866.29 -0.00018940086 -0.00011612905 0.00021243133 
  139000    2.4412488 0.0021726176    284904.75    350949.32 -0.0002465251 -4.0066034e-05 0.00027837064 
  140000    2.4416426 0.0021846319    284904.75    354897.99 -0.00026926536 -4.449139e-05 0.00031477566 
  141000    2.4391039 0.0021772453    284904.75    358847.49 -0.00020409128 6.9981241e-05 0.00029358767 
  142000    2.4438691 0.0021792355    284904.75    362836.79 -0.00020429607 0.00011723216 0.0003353258 
  143000    2.4386894 0.0021914302    284904.75    366862.85 -0.00020681037 9.6938186e-05 0.00029402184 
  144000    2.4393351 0.0021747065    284904.75    370936.65 -0.00020159243 4.2450551e-05 0.00034812049 
  145000    2.4383908 0.0021764193    284904.75    374971.13 -0.00025239933 0.00010751118 0.00042075214 
  146000    2.4416459 0.0021743064    284904.75    379033.11 -0.00024489626 7.9984109e-05 0.00042042954 
  147000    2.4372122 0.0022374647    284904.75    383161.44 -0.00024210701 0.00013647654 0.00041567733 
  148000    2.4390172 0.0021802951    284904.75    387275.52 -0.00032395044 0.00017204613 0.0004185504 
  149000    2.4416402 0.0022046485    284904.75    391444.72 -0.00039303521 0.00020539699 0.00032966017 
  150000    2.4406946 0.0021738754    284904.75    395663.08 -0.0003682864 0.00024972678 0.0003518398 
  151000    2.4379526 0.0021759281    284904.75    399903.02 -0.00040999395 0.00023741408 0.00040801611 
  152000    2.4375252 0.0021764329    284904.75    404124.32 -0.00040996546 0.00032227895 0.0004355516 
  153000    2.4400847 0.0021766618    284904.75    408356.24 -0.00040696253 0.00028929619 0.00043696293 
  154000    2.4427197 0.0021756364    284904.75    412548.82 -0.00047572237 0.00031944127 0.00043205913 
  155000    2.4391053 0.0021864659    284904.75    416765.62 -0.00050971076 0.00024780102 0.0004454705 
  156000    2.4417104 0.0021719583    284904.75    420996.65 -0.00050959087 0.00024565322 0.0004322447 
  157000    2.4387103 0.0021761646    284904.75       425275 -0.00056561922 0.00019657102 0.00042682214 
  158000    2.4378655 0.0021763351    284904.75    429532.44 -0.00059923041 0.00022692707 0.00039476003 
  159000    2.4422509 0.0021719161    284904.75    433843.19 -0.00063094366 0.00021112273 0.00038166418 
  160000    2.4389895  0.002174627    284904.75    438165.46 -0.00050792404 0.00026964525 0.00043901383 
  161000    2.4402836 0.0021786914    284904.75    442494.44 -0.00048546808 0.00028684713 0.00043064586 
  162000    2.4411745 0.0021750869    284904.75    446869.92 -0.00049648909 0.00033419317 0.00039917858 
  163000    2.4423943 0.0021778136    284904.75    451218.92 -0.00054034925 0.00040046551 0.00037345482 
  164000    2.4401494 0.0021808898    284904.75    455574.49 -0.00048739112 0.00038408021 0.00039138408 
  165000    2.4346511 0.0022617884    284904.75    459890.12 -0.00019731645 0.0004923968 0.00035694897 
  166000    2.4377162  0.002176076    284904.75    464078.58 -0.00040769881 0.0002827878 0.00050219051 
  167000    2.4404885 0.0021750108    284904.75    468136.99 -0.00039929611 0.00026858874 0.00049386551 
  168000    2.4391207 0.0021746047    284904.75    472178.43 -0.00056170697 0.00026582273 0.00046277744 
  169000    2.4398257 0.0021779491    284904.75    476277.37 -0.00059435005 0.00027642864 0.00036793608 
  170000    2.4385719  0.002174646    284904.75     480391.2 -0.00067945671 0.00019099868 0.00037476696 
  171000    2.4382889 0.0021784038    284904.75     484509.8 -0.00070499531 6.7157021e-05 0.00032836118 
  172000    2.4396979 0.0021768862    284904.75    488631.61 -0.000667774 5.2786091e-05 0.00032818949 
  173000    2.4424509 0.0021909335    284904.75    492724.04 -0.00068789931 1.4069795e-05 0.00036736621 
  174000    2.4407272 0.0021810194    284904.75    496796.04 -0.00062067443 2.2904595e-05 0.00034864809 
  175000    2.4403931 0.0021866446    284904.75     500870.7 -0.00073414719 4.3747542e-05 0.00030167711 
  176000    2.4412042 0.0021867078    284904.75       504965 -0.00071371186 2.3510513e-05 0.00034452144 
  177000    2.4404781  0.002198853    284904.75    509105.97 -0.00062486209 -0.00015915763 0.0003686708 
  178000    2.4396058 0.0022016352    284904.75    513235.57 -0.00057500809 -3.2454291e-05 0.00028471029 
  179000    2.4399939 0.0021737709    284904.75    517395.87 -0.00064795906 -7.2246508e-05 0.00032453077 
  180000    2.4443661 0.0021707059    284904.75    521562.01 -0.00058543818 -5.1212123e-05 0.00035556628 
  181000    2.4384455 0.0022419602    284904.75    525793.09 -0.00046959367 9.8128454e-05 0.00031205422 
  182000    2.4434593 0.0021701823    284904.75    530075.93 -0.00074337123 -0.0001964911 0.00033061511 
  183000    2.4386432  0.002175116    284904.75    534394.84 -0.00074819359 -0.00021137679 0.00033042468 
  184000    2.4417521 0.0021737568    284904.75    538750.86 -0.00075142628 -0.00018212686 0.00030309805 
  185000    2.4423241 0.0021780946    284904.75    543177.05 -0.00079385914 -0.00015396662 0.00030829566 
  186000    2.4402088 0.0022186508    284904.75    547648.96 -0.00078630672 -0.00013253996 0.00029217004 
  187000    2.4443943  0.002178008    284904.75    552124.89 -0.00072023698 -0.00013917197 0.00037464831 
  188000    2.4402903 0.0022279819    284904.75    556594.33 -0.00079662687 -0.00025635239 0.00039582402 
  189000    2.4377878 0.0021771851    284904.75    561056.97 -0.0008230531 -4.3937734e-05 0.00041418563 
  190000    2.4398784 0.0021727824    284904.75     565524.3 -0.00085533698 -0.00012909999 0.00056523082 
  191000    2.4423729 0.0021876041    284904.75     569885.3 -0.00081229591 -0.00011833567 0.00048829723 
  192000    2.4405364 0.0021739772    284904.75    574279.36 -0.00077548324 -0.00017819087 0.00046382503 
  193000    2.4402322 0.0021877706    284904.75    578688.06 -0.00076190216 -0.00017102041 0.00050637967 
  194000    2.4392873 0.0021837669    284904.75    583221.62 -0.0008031378 -0.00018336546 0.0005161781 
  195000    2.4428047 0.0021740056    284904.75    587791.18 -0.00079285174 -0.00018633164 0.00051972858 
  196000    2.4376714 0.0021766667    284904.75    592427.51 -0.0008188521 -0.00024977357 0.00048862335 
  197000    2.4425381 0.0021798481    284904.75    597102.38 -0.00080293596 -0.00024472884 0.00048755097 
  198000    2.4398249 0.0021989835    284904.75    601823.12 -0.00086032588 -0.00023148555 0.0004569196 
  199000    2.4402062 0.0021739229    284904.75    606507.56 -0.00084723395 -0.00021903913 0.0004435938 
  200000    2.4380185 0.0022200446    284904.75    611187.23 -0.001016552 -1.5835377e-05 0.00042143338 
  201000    2.4413313 0.0021731849    284904.75    615961.69 -0.00081724099 -0.00013397578 0.00027763373 
  202000     2.441687 0.0021767675    284904.75    620739.87 -0.00080953049 -7.6269667e-05 0.00026996032 
  203000    2.4433557 0.0021801676    284904.75    625499.63 -0.00075550311 -8.0557746e-05 0.0002380486 
  204000    2.4392211 0.0021803202    284904.75    630280.72 -0.0006851921 -0.00011530308 0.0002148274 
  205000     2.437708  0.002195274    284904.75    635041.62 -0.00068302429 -0.00012191659 0.00018802759 
  206000    2.4396377 0.0021777434    284904.75       639775 -0.00072409621 -0.00012022716 0.00019094702 
  207000    2.4392726 0.0021790949    284904.75    644512.41 -0.00077187564 -5.3180562e-05 0.00021250401 
  208000    2.4373526 0.0021769002    284904.75    649156.89 -0.00076391453 -3.6227332e-05 0.00021393358 
  209000    2.4361562 0.0021792617    284904.75    653845.83 -0.00074129519 -4.9407315e-06 0.00010795036 
  210000    2.4359556  0.002179352    284904.75    658561.58 -0.00071924208 -1.8128563e-05 8.346342e-05 
  211000    2.4357834 0.0021799972    284904.75    663292.36 -0.00066529173 -1.6834447e-06 0.00017675231 
  212000    2.4380576 0.0021761793    284904.75    668052.48 -0.00069158301 -1.7847867e-05 0.00021160704 
  213000    2.4359619 0.0021795648    284904.75    672757.34 -0.00065803839 -8.1426049e-05 0.00020454573 
  214000    2.4370245 0.0021775405    284904.75     677416.6 -0.00068328417 -7.027098e-05 0.00031057694 
  215000    2.4426065 0.0021751839    284904.75    682071.72 -0.00061329609 -7.8775648e-05 0.00031847943 
  216000    2.4405954 0.0021784863    284904.75    686746.03 -0.00060602725 -4.7864453e-05   0.00025864 
  217000     2.438621 0.0021765652    284904.75    691414.63 -0.00062132802 -8.2746606e-05 0.00025496594 
  218000    2.4408247 0.0021764854    284904.75    696060.72 -0.00066626319 -8.1469601e-05 0.00026779269 
  219000    2.4360921 0.0021788899    284904.75    700528.21 -0.00062517233 -0.00013942513 0.00019544219 
  220000    2.4297215 0.0022518743    284904.75    704984.71 -0.00058081755 -2.6825193e-05 0.00039042515 
  221000    2.4368028 0.0021774464    284904.75    709400.49 -0.00060863101 -6.3912382e-05 0.0001562355 
  222000    2.4378022 0.0021763981    284904.75     713732.6 -0.00054301548 -5.9026674e-05 0.00012088221 
  223000    2.4360843 0.0021788999    284904.75    718044.48 -0.0005310076 -5.4830074e-05 0.00011249459 
  224000    2.4350008 0.0022219391    284904.75    722331.75  -0.00048035 -2.4873672e-05 6.102288e-05 
  225000    2.4405862 0.0021798043    284904.75    726586.42 -0.00054363772 -2.2637729e-05 9.0003805e-05 
  226000    2.4364458 0.0021784255    284904.75    730855.98 -0.00055754813 -2.7931407e-05 6.493822e-05 
  227000    2.4381908 0.0021757696    284904.75       735169 -0.00062213135 0.00027111759 0.00021598773 
  228000    2.4418373 0.0021725483    284904.75    739365.58 -0.00062937664 0.00031581855 0.00029173608 
  229000    2.4376088  0.002176775    284904.75     743430.8 -0.00058869552 0.00023914803 0.00034149305 
  230000    2.4407274 0.0021746727    284904.75    747521.41 -0.0005357749 0.00028783226 0.00035208996 
  231000    2.4409663 0.0021742129    284904.75    751639.71 -0.00041478958 0.0003505369 0.00031501973 
  232000    2.4363524 0.0022094514    284904.75    755717.37 -0.00023435104 0.00043637416 0.00023977368 
  233000    2.4436308 0.0021865792    284904.75     759773.3 -0.00024362859 -8.2487497e-05 7.7509589e-05 
  234000    2.4368623 0.0021774949    284904.75    763647.06 -0.00033434477 -0.00012998315 0.00015336243 
  235000    2.4392666 0.0021744953    284904.75    767350.04 -0.000343985 -9.9502074e-05 0.00014308078 
  236000    2.4393558 0.0021751478    284904.75    771066.42 -0.00039082723 -0.0001203424 0.00010227971 
  237000    2.4379473 0.0021972799    284904.75    774710.33 -0.00040621991 -0.00010206401 0.00011665998 
  238000    2.4393572 0.0021740758    284904.75     778338.7 -0.0004171836 -9.1313135e-05 8.1760636e-05 
  239000    2.4383506 0.0021747963    284904.75     782020.4 -0.00039747787 -7.1627754e-05 0.00015345629 
  240000    2.4385761 0.0021759026    284904.75    785735.37 -0.00046343783 -7.2488535e-05 0.00021584925 
  241000    2.4371092 0.0021772125    284904.75    789422.03 -0.0004532798 -0.00012272155 5.2793044e-05 
  242000    2.4378976 0.0021759993    284904.75    793080.26 -0.00044538186 -0.00012963231 4.7425288e-05 
  243000    2.4401878 0.0021743074    284904.75    796756.23 -0.00047509853 -0.00010248105 2.0862203e-05 
  244000    2.4370431 0.0021768202    284904.75     800411.7 -0.00052915253 -1.8718806e-05 -2.8156806e-05 
  245000    2.4389074 0.0021827694    284904.75    804115.98 -0.00048714706 6.3550194e-06 -8.2721493e-06 
  246000    2.4361161 0.0021790943    284904.75    807918.38 -0.00051008607 -5.3599886e-05 -3.8189325e-05 
  247000    2.4384146 0.0021776188    284904.75    811815.88 -0.00051931326 -9.781997e-05 -4.1639758e-05 
  248000     2.437007 0.0021774749    284904.75    815781.67 -0.00053389614 -0.0001134158 -1.648338e-05 
  249000    2.4398225  0.002179074    284904.75    819791.67 -0.00052706945 -0.00011689289 -5.8380634e-06 
  250000     2.439687 0.0021740836    284904.75     823785.9 -0.00056241951 -0.00010631036 -1.0508094e-05 
  251000    2.4382949 0.0021792547    284904.75    827837.64 -0.0005279903 -7.3161741e-05 2.5100799e-05 
  252000    2.4385888 0.0021765778    284904.75    831916.31 -0.00047888805 -6.7334941e-05 -5.1740301e-05 
  253000    2.4406351 0.0021874089    284904.75    836004.03 -0.00043563183 -7.5553019e-05 -3.0990562e-05 
  254000    2.4367535 0.0021777921    284904.75    840022.82 -0.00039578759 -0.0001249184 -3.1304975e-07 
  255000    2.4375152 0.0021763547    284904.75    844065.92 -0.00040380176 -0.00011102475 -5.2935651e-06 
  256000    2.4398969 0.0021763278    284904.75    848074.18 -0.00036687319 -3.3851447e-05 -5.7126625e-05 
  257000    2.4381033 0.0021752802    284904.75    851997.15 -0.00037274968 9.1038994e-06 -4.9003567e-05 
  258000     2.436997 0.0021773379    284904.75    855804.38 -0.00037503475 -4.5157147e-05 7.7815172e-06 
  259000    2.4362004 0.0021788174    284904.75    859627.09 -0.0003612369 -0.00014204034 5.9259313e-05 
  260000    2.4393119 0.0021821971    284904.75    863510.56 -0.00031704809 -9.4064641e-05 0.00013488201 
  261000    2.4400274 0.0021762795    284904.75    867426.29 -0.00036109785 -0.0001741749 0.00024718044 
  262000    2.4377955  0.002176519    284904.75    871294.36 -0.00033796593 -0.00017557991 0.0002323268 
  263000    2.4389821 0.0021742136    284904.75    875177.47 -0.0003142721 -0.00017264368 0.00022691882 
  264000    2.4423241 0.0021716188    284904.75    878975.52 -0.00028233947 -0.00022670026 0.00020500987 
  265000    2.4395663 0.0021757482    284904.75    882760.44 -0.00024506612 -0.00022941305 0.00016746736 
  266000    2.4360802 0.0021790274    284904.75    886587.01 -0.00024655299 -0.00024781802 0.00017110944 
  267000    2.4368756 0.0021778516    284904.75    890481.28 -0.00022425631 -0.00023737618 0.00020339827 
  268000    2.4379874 0.0021759677    284904.75    894427.15 -0.00022254631 -0.00026301212 0.00018141001 
  269000    2.4394146 0.0021737413    284904.75    898418.01 -0.00021436462 -0.00024384515 0.00014828609 
  270000    2.4405354 0.0021730453    284904.75    902440.52 -0.00027221959 -0.00020283225 0.00020515993 
  271000    2.4405918 0.0021734926    284904.75    906422.82 -0.00031608357 -0.00021821631 0.0001910469 
  272000    2.4385451 0.0021824923    284904.75    910399.63 -0.00032875505 -0.00022667003 2.2804029e-05 
  273000    2.4464944 0.0021724914    284904.75    914371.37 -0.00031137367 -0.00024848384 -3.1343488e-05 
  274000    2.4363244 0.0021785073    284904.75    918385.76 -0.00029635361 -0.00027791005 5.7522642e-05 
  275000    2.4415565 0.0021948812    284904.75    922402.95 -0.00022451577 -0.00033776042 1.2861421e-05 
  276000    2.4396452  0.002175056    284904.75     926437.5 -0.0002861106 -0.00029698678 8.302665e-05 
  277000    2.4357969  0.002179864    284904.75    930537.97 -0.00032579348 -0.00022579552 6.1352454e-05 
  278000    2.4383012 0.0021780228    284904.75    934676.32 -0.00033733476 -0.00022973169 6.1842635e-05 
  279000    2.4382163 0.0021764312    284904.75    938822.08 -0.00033014654 -0.00022532384 8.1629299e-05 
  280000    2.4391754 0.0021845715    284904.75    942992.72 -0.00031830837 -0.00023074333 8.1467104e-05 
  281000     2.436602 0.0021779149    284904.75    947176.18 -0.00037575213 -0.00026660236 0.0001174484 
  282000    2.4439229 0.0021909218    284904.75    951321.32 -0.00038902968 -0.00033956879 3.2904514e-05 
  283000    2.4365677 0.0022025579    284904.75    955485.98 -0.00043950863 -0.00039699005 0.00012076165 
  284000     2.437916 0.0021763523    284904.75    959508.72 -0.00049248314 -0.00033212576 -6.8060004e-05 
  285000    2.4398936 0.0021960626    284904.75    963521.19 -0.00057309583 -0.00044385713 -3.2780371e-05 
  286000    2.4392312 0.0021974796    284904.75     967513.6 -0.00049042453 -0.00048932707 5.1004392e-05 
  287000     2.436824 0.0022143802    284904.75    971497.61 -0.00054489038 -0.00051838298 -5.8206243e-05 
  288000    2.4388836 0.0021819023    284904.75    975473.78 -0.00053734684 -0.00051791142 -5.6535359e-05 
  289000    2.4365931 0.0021779408    284904.75    979442.13 -0.00051786378 -0.00056493367 -9.5550206e-05 
  290000    2.4364396 0.0022176609    284904.75    983393.31 -0.00052300776 -0.00049794214 -9.1259782e-05 
  291000    2.4417548 0.0021698968    284904.75    987265.85 -0.00063322101 -0.00052786201 -5.2612811e-06 
  292000    2.4415057 0.0021712107    284904.75    991193.68 -0.00057704883 -0.00054199698 3.3050178e-05 
  293000    2.4428531 0.0021728692    284904.75     995160.4 -0.00057587757 -0.00047449614 -3.6937812e-05 
  294000    2.4395194 0.0021740862    284904.75    999134.34 -0.00055986247 -0.00050962169 -7.0633569e-06 
  295000    2.4380833 0.0021757334    284904.75    1003099.4 -0.00059141423 -0.00061405738 6.4767769e-05 
  296000     2.441248 0.0021758214    284904.75    1007104.9 -0.00057022138 -0.00059554938 0.00011768269 
  297000    2.4412715 0.0021752287    284904.75    1011077.9 -0.0006080052 -0.00067711615 -7.0622846e-06 
  298000    2.4384212 0.0021890833    284904.75      1015020 -0.00056545737 -0.0006451582 -5.5016248e-05 
  299000    2.4429176 0.0021769186    284904.75    1018948.7 -0.00055061344 -0.00066260073 -5.871594e-05 
  300000    2.4380012 0.0021949988    284904.75      1022875 -0.00050847766 -0.0005395583 -7.5002916e-05 
  301000    2.4375711 0.0021759243    284904.75    1026776.3 -0.00045576328 -0.00053088001 -0.0001006906 
  302000    2.4415849 0.0021953722    284904.75    1030712.9 -0.00049101566 -0.00044395082 -5.4338275e-05 
  303000    2.4363663 0.0022117592    284904.75    1034775.8 -0.00054624089 -0.00038936065 -0.00010686239 
  304000    2.4389065 0.0021892712    284904.75    1038878.5 -0.00045233214 -0.00049545755 -7.058749e-05 
  305000    2.4389629 0.0021748123    284904.75    1043004.1 -0.0004192647 -0.0004714146 -0.00011573591 
  306000    2.4369269 0.0021776579    284904.75      1047063 -0.00034110805 -0.00042806959 -9.7181417e-05 
  307000    2.4398036 0.0021739592    284904.75    1051094.7 -0.00030370119 -0.00043213457 -6.5645141e-05 
  308000    2.4433725  0.002200825    284904.75    1055158.8 -0.00031839075 -0.00044865232 -2.4659622e-05 
  309000    2.4415041 0.0021717263    284904.75    1059198.9 -0.00037139884 -0.00046165442 -5.1516583e-05 
  310000    2.4363049 0.0021785364    284904.75    1063020.3 -0.00037826855 -0.00048028528 -4.3940434e-05 
  311000    2.4400938 0.0021810482    284904.75    1066737.8 -0.0003871183 -0.00048032366 -9.2009203e-05 
  312000    2.4369294 0.0021774055    284904.75    1070419.1 -0.00039449845 -0.00033040691 -0.00012648186 
  313000    2.4387507  0.002174725    284904.75      1073952 -0.00034085424 -0.00030918028 -0.00020358898 
  314000    2.4367789 0.0021776309    284904.75    1077505.8 -0.00032880659 -0.00029386098 -0.0002077942 
  315000    2.4395765 0.0021744097    284904.75      1081068 -0.00036279238 -0.00031160479 -0.0002173011 
  316000    2.4374679 0.0021768011    284904.75      1084663 -0.00038408783 -0.00039930071 -0.00017401475 
  317000    2.4407239 0.0021810026    284904.75      1088277 -0.00027383446 -0.00035573297 -0.00021978786 
  318000    2.4391669 0.0021763499    284904.75    1091922.5 -0.00030291873 -0.00033576589 -0.00024726524 
  319000    2.4390247 0.0021745072    284904.75    1095598.7 -0.00036404506 -0.00034943188 -0.00034062117 
  320000    2.4355465   0.00221089    284904.75    1099341.3 -0.0003731233 -0.00035512297 -0.00033181301 
  321000    2.4384543 0.0021748703    284904.75    1103162.6 -0.00034168851 -0.00034246837 -0.00030657817 
  322000    2.4376889 0.0021758769    284904.75    1107029.9 -0.00029563399 -0.00021861185 -0.00020887055 
  323000    2.4367062 0.0021778609    284904.75    1110918.4 -0.00028612618 -0.00021598161 -0.00020469261 
  324000     2.437915 0.0021764452    284904.75    1114870.8 -0.00029474215 -0.0002083373 -0.00022938837 
  325000    2.4359844 0.0021790851    284904.75    1118873.6 -0.00027070057 -0.00023501441 -0.00023843214 
  326000    2.4380698 0.0021766834    284904.75    1122879.9 -0.00026905045 -0.00026528962 -0.00023295291 
  327000    2.4391568 0.0021745958    284904.75    1126977.6 -0.00023109288 -2.278094e-05 -0.00016381294 
  328000    2.4389907  0.002181088    284904.75    1131174.3 -0.00022037206 -4.8755362e-05 -0.00019130478 
  329000    2.4373292 0.0021770188    284904.75    1135361.6 -0.00023165655 -3.7043452e-05 -0.00019471944 
  330000    2.4377222 0.0021756547    284904.75    1139545.8 -0.00022318371 -3.3215833e-05 -0.00018488678 
  331000    2.4394618 0.0021764865    284904.75    1143749.8 -3.720269e-05  2.76952e-05 -0.00027343762 
  332000     2.436968 0.0021776733    284904.75      1147957 -0.00016865103 -0.00012971797 -0.00036769156 
  333000    2.4404461 0.0021910303    284904.75    1152097.2 -0.0001568025 -0.00021202571 -0.00033312152 
  334000    2.4368463 0.0021774754    284904.75    1156247.3 -0.00013179308 -0.00019043629 -0.00036420588 
  335000    2.4423928 0.0021807352    284904.75    1160332.3 -0.00015347202 -0.00019882734 -0.00032930045 
  336000    2.4370324 0.0021773564    284904.75    1164389.1 -6.1512164e-05 -0.00018761811 -0.00033206271 
  337000    2.4360465 0.0021789785    284904.75    1168459.6 -6.8505772e-05 -0.00017480215 -0.00032122312 
  338000    2.4362219  0.002178674    284904.75    1172578.8 -7.6695463e-05 -0.00019182657 -0.00032580247 
  339000    2.4370571 0.0021772056    284904.75    1176698.6 -1.1726642e-05 -0.00010253903 -0.00033532959 
  340000     2.439575 0.0022062596    284904.75    1180725.9 5.3460306e-05 -0.00015061486 -0.00036994497 
  341000    2.4378977 0.0021763304    284904.75    1184694.6 -3.0836821e-05 -0.00023570874 -0.00023605777 
  342000    2.4406367 0.0021712289    284904.75    1188704.1 -6.7880467e-05 -0.00020264915 -0.00025197334 
  343000    2.4396535 0.0021777046    284904.75    1192794.5 -8.6049802e-05 -0.00017625235  -0.00029415 
  344000    2.4367478 0.0021777979    284904.75    1197007.6 -9.6937935e-05 -0.00022405914 -0.00028227992 
  345000    2.4393665  0.002178562    284904.75    1201324.2 -0.00012041396 -0.00022544907 -0.00028517504 
  346000    2.4368638 0.0021773952    284904.75    1205673.5 -0.00012021742 -0.00021622635 -0.00024487823 
  347000    2.4380159 0.0021754899    284904.75    1210025.3 -0.00012865881 -0.00019940466 -0.0003113888 
  348000    2.4389509 0.0021806247    284904.75    1214348.1 -0.00012345947 -0.00019706793 -0.00031387503 
  349000    2.4396862 0.0021730959    284904.75    1218684.7 -0.00013624308 -0.00018241327 -0.00031505217 
  350000    2.4371958  0.002176951    284904.75    1222983.4 -0.00016950177 -0.00021903709 -0.00041189522 
  351000    2.4412808 0.0021796117    284904.75    1227333.6 -9.2926991e-05 -0.00017201206 -0.00036803897 
  352000    2.4238398 0.0023127708    284904.75    1231706.3 3.9381738e-05 -0.00012481436 -0.00034008447 
  353000    2.4403823 0.0021788254    284904.75    1236079.3 -0.00014365552 -0.000210239 -0.00037417046 
  354000    2.4401177 0.0021789482    284904.75    1240313.8 -4.7044935e-05 -0.00010525607 -0.00038226681 
  355000    2.4378796 0.0021765797    284904.75    1244486.5 -5.7039503e-05 -9.5562044e-05 -0.00037540462 
  356000    2.4399219 0.0021774124    284904.75    1248665.8 -6.0793296e-05 -0.00010237267 -0.00040518256 
  357000    2.4384058 0.0021796566    284904.75    1252882.3 -8.1137322e-05 -0.00011847348 -0.0004093605 
  358000    2.4408191 0.0021843776    284904.75    1257122.2 0.00010085879 -0.00030005021 -0.00027555995 
  359000    2.4382497 0.0022002157    284904.75    1261550.5 7.641024e-05 -0.0003486117 -0.00035729993 
  360000    2.4336607 0.0022458319    284904.75    1266018.2 0.00016903902 -0.00056534597 -0.00066582932 
  361000    2.4382261 0.0021781206    284904.75    1270459.9 0.00018382059 -0.0004155449 -0.00031745857 
  362000     2.436541 0.0021778848    284904.75    1274923.8 0.00014183871 -0.0003894071 -0.00032093783 
  363000    2.4378287 0.0021760839    284904.75    1279303.6 0.00018205189 -0.00033481901 -0.0002951564 
  364000    2.4377182 0.0021770434    284904.75    1283515.2 0.00015236346 -0.00031101579 -0.00029834143 
  365000    2.4372915 0.0021771795    284904.75    1287702.5 0.00015702943 -0.00033813738 -0.00025083893 
  366000    2.4365805  0.002177953    284904.75      1291980 6.4551459e-05 -0.00025049038 -0.00013753035 
  367000     2.438291 0.0021755886    284904.75    1296333.8 7.4025441e-05 -0.00026650641 -0.0001186638 
  368000    2.4360765 0.0022075873    284904.75    1300705.2 9.7402513e-05 -0.00026513866 -0.00010433762 
  369000    2.4411797 0.0021745843    284904.75    1305115.7 0.00010169745 -0.00024775642 2.8706581e-07 
  370000    2.4375918 0.0021762913    284904.75    1309557.3 7.9520064e-05 -0.00024746698 -1.2485101e-05 
  371000    2.4365836 0.0021777377    284904.75    1313986.2 4.5446008e-05 -0.0002863845 1.6068187e-05 
  372000    2.4368637 0.0021776432    284904.75    1318535.7 3.1573981e-05 -0.00027853275 3.6230248e-06 
  373000    2.4363961 0.0021785017    284904.75      1323113 1.480457e-05 -0.00028958932 -1.0531533e-05 
  374000     2.439084 0.0021812849    284904.75    1327728.6 6.0784441e-05 -0.00037028177 2.6050754e-05 
  375000    2.4386605 0.0021784964    284904.75    1332425.3 4.5124731e-05 -0.00037592408 3.4897956e-05 
  376000    2.4373548  0.002177185    284904.75    1337117.3 7.9986532e-05 -0.00029372835 -1.5949368e-05 
  377000    2.4416728 0.0021776401    284904.75    1341745.4 -1.0491229e-05 -0.00033974436 -9.2607647e-06 
  378000    2.4401805 0.0021727509    284904.75    1346356.1 -4.4599899e-06 -0.00028788254 5.6629352e-05 
  379000    2.4360629 0.0021790696    284904.75    1350992.8 -8.636253e-06 -0.00029803676 3.6995799e-05 
  380000    2.4392019 0.0021748399    284904.75    1355666.4 3.3093057e-05 -0.0003590344 5.6671046e-05 
  381000    2.4394216  0.002173186    284904.75    1360353.5 1.1885535e-05 -0.00033274433 5.3822701e-05 
  382000    2.4459455 0.0021870637    284904.75    1364985.6 9.0876566e-05 -0.00031211266 8.1455535e-05 
  383000    2.4420281 0.0021743335    284904.75    1369491.7 1.5499178e-05 -0.00028308754 4.8738901e-05 
  384000    2.4367995 0.0021777368    284904.75    1373985.2 -2.0659094e-05 -0.00034263068 5.4063685e-05 
  385000    2.4384073 0.0021765065    284904.75    1378501.4 -0.00013448396 -0.00029098537 2.3111566e-05 
  386000    2.4326967 0.0022414364    284904.75    1383011.8 -0.0001530404 -0.0002095051 0.00019754824 
  387000      2.43924 0.0021754423    284904.75    1387518.2 -0.00018351964 -0.00017595993 -7.301127e-05 
  388000     2.437795 0.0021782098    284904.75    1392071.2 -0.0001712034 -0.00016990316 -6.8035196e-05 
  389000    2.4407725 0.0021774129    284904.75    1396698.2 -0.00017334615 -0.00020974658 -0.00012752378 
  390000    2.4362707 0.0021787126    284904.75      1401295 -0.00011668792 -0.00023231186 -0.00013857201 
  391000    2.4359508 0.0021796062    284904.75    1405941.3 -0.00018843552 -0.00021856408 -4.1377134e-05 
  392000    2.4362148 0.0021786942    284904.75    1410541.4 -0.0002046823 -0.00017661846 1.4063693e-05 
  393000    2.4373357 0.0022114851    284904.75    1415116.4 -0.000149605 -0.00023703409 -4.1486176e-05 
  394000    2.4403011 0.0021737902    284904.75    1419447.4 -9.734208e-05 -0.00010310066 7.2866756e-05 
  395000    2.4375107 0.0021767697    284904.75    1423733.7 -0.00015556409 -3.6202186e-05 -7.5627488e-05 
  396000    2.4362547 0.0021785071    284904.75    1427972.1 -0.00013867471 -3.3040985e-05 -6.4519479e-05 
  397000    2.4386758 0.0021805602    284904.75    1432189.4 -0.00011034007 -7.7652114e-05 -8.7334662e-05 
  398000     2.441309  0.002211081    284904.75    1436471.7 -0.00015909927 -8.1155612e-05 -0.00014379108 
  399000    2.4358721 0.0021795079    284904.75    1440740.7 -0.00021128528 -0.00010160357 -6.4860986e-05 
  400000    2.4375989 0.0021760157    284904.75    1444996.6 -0.00027630369 -5.8206154e-05 -0.00014452147 
  401000    2.4369661 0.0021772236    284904.75    1449153.3 -0.00038832677 4.1430565e-05 -0.00012406108 
  402000     2.443318 0.0021847066    284904.75      1453350 -0.00036550058 5.6119191e-05 -0.00011243318 
  403000    2.4360457 0.0021790897    284904.75    1457538.3 -0.00029666169 4.2065506e-05 -8.6981546e-05 
  404000    2.4379107 0.0021763289    284904.75    1461726.3 -0.0002626722 7.0473321e-05 -4.5858958e-05 
  405000    2.4422168 0.0021736462    284904.75    1465863.1 -0.00031348563 9.9763715e-05 -0.00010632748 
  406000    2.4400039 0.0021792884    284904.75    1470030.5 -0.00024964479 0.00018652925 -0.00014352252 
  407000    2.4438545  0.002171398    284904.75    1474244.2 -0.00032135835 0.00014661943 -0.00017116043 
  408000    2.4411827 0.0021745117    284904.75      1478498 -0.00037542429 0.00019121125 -0.00024387836 
  409000    2.4380891 0.0021943834    284904.75    1482757.8 -0.00038439387 0.00015380347 -0.00024488923 
  410000    2.4402613 0.0021730164    284904.75    1487061.9 -0.00043515219 0.00015689074 -0.0001739242 
  411000      2.43895  0.002175916    284904.75    1491384.4 -0.00043623874 0.00012041853 -0.00019976482 
  412000    2.4387978 0.0021851973    284904.75    1495805.5 -0.00041929114 0.00014152298 -0.00018316575 
  413000    2.4386336 0.0021891652    284904.75    1500273.3 -0.00041537376 0.0001299747 -0.00020772158 
  414000    2.4373204 0.0021770187    284904.75    1504793.4 -0.00048021285 0.00026699996 -0.00015097545 
  415000    2.4366306 0.0021782709    284904.75    1509220.8 -0.00046997595 0.00037917695 0.0001183568 
  416000    2.4385147 0.0021786723    284904.75    1513525.6 -0.00049091614 0.00042028612 0.00012383152 
  417000    2.4371261 0.0021765913    284904.75    1517862.8 -0.00054118461 0.0003524141 0.00016540598 
  418000    2.4398262 0.0021749371    284904.75      1522146 -0.00048439096 0.00033600628 3.6629693e-05 
  419000    2.4396545 0.0021762744    284904.75    1526408.4 -0.00052042337 0.00020884258 9.1233727e-05 
  420000    2.4325914 0.0022580021    284904.75    1530758.7 -0.00081952744 0.00013755305 -2.4786232e-05 
  421000    2.4387157  0.002178449    284904.75    1534942.9 -0.00053332082 0.00025731881 5.5710137e-05 
  422000    2.4366272 0.0021776549    284904.75    1539156.5 -0.0004790754 0.00023496145 5.5147346e-05 
  423000     2.438659 0.0021754029    284904.75    1543340.9 -0.0004709555 0.00025999096 2.2409541e-05 
  424000    2.4359239 0.0021795283    284904.75    1547532.5 -0.00046109835 0.00026146281 4.5144811e-05 
  425000     2.438646 0.0021748271    284904.75    1551794.4 -0.00040631684 0.00025055773 8.0912768e-05 
  426000    2.4388373 0.0021834296    284904.75    1556049.7 -0.00055753159 0.00034200015 3.6587338e-05 
  427000    2.4342888 0.0022240273    284904.75    1560294.1 -0.00058727319 0.00036620421 0.00013129012 
  428000    2.4388006 0.0021851198    284904.75    1564526.1 -0.00056227841 0.00038847622 4.687748e-05 
  429000    2.4399336 0.0021781977    284904.75    1568791.6 -0.00055456393 0.00037398819 9.8517898e-05 
  430000    2.4403861 0.0021890623    284904.75    1573002.5 -0.00052412703 0.0003128549 2.4540346e-05 
  431000     2.438806 0.0021752016    284904.75    1577096.6 -0.00050270444 0.00031973293 4.7325707e-05 
  432000    2.4366291 0.0022041061    284904.75    1581147.7 -0.00048137864 0.00051795518 8.4825299e-05 
  433000    2.4397396 0.0021736941    284904.75    1585167.1 -0.00045881983 0.00047899437 -2.7821595e-07 
  434000    2.4367876 0.0021777992    284904.75    1589218.7 -0.00045133069 0.00045939607 -1.4376859e-06 
  435000     2.438651 0.0021775681    284904.75    1593381.8 -0.00037347363 0.0004923506 -4.9552092e-05 
  436000    2.4366918 0.0021776718    284904.75    1597588.4 -0.00038700308 0.00043606953 -8.138611e-05 
  437000    2.4387029 0.0021752623    284904.75    1601827.1 -0.00043863409 0.00046620693 -0.00012757273 
  438000    2.4369183 0.0021779589    284904.75    1606104.1 -0.0004730772 0.00044856483 -0.00015530466 
  439000    2.4358486 0.0022572923    284904.75    1610336.2 -0.00087601676 0.00095362411 -0.00012890454 
  440000    2.4404364 0.0022142489    284904.75      1614477 -0.0001511344 0.00068289306 -5.836624e-05 
  441000    2.4368535 0.0021775206    284904.75    1618664.7 -0.00029286562 0.00055082239 -0.00012945109 
  442000     2.439399 0.0021825897    284904.75    1622906.5 -0.00029275016 0.00061524771 -0.00010547976 
  443000    2.4421949 0.0021835802    284904.75    1627199.9 -0.00031248167 0.0005994896 -0.00015398254 
  444000    2.4371121 0.0022099777    284904.75    1631432.9 -0.00031216962 0.0005781665 -6.9343749e-05 
  445000     2.439303 0.0021870891    284904.75      1635645 -0.00034151822 0.0006319327 -0.00010266249 
  446000    2.4413632 0.0021868173    284904.75    1639926.9 -0.00022046905 0.00059055944 -0.0002202772 
  447000    2.4362669  0.002178719    284904.75    1644233.3 -0.00018612703 0.00055351032 -0.00018802655 
  448000    2.4392493  0.002190691    284904.75      1648410 -6.2314993e-05 0.00053878255 -0.00022637121 
  449000    2.4379015 0.0021760518    284904.75      1652365 -4.6515875e-05 0.00057340488 -0.00017847434 
  450000    2.4385528 0.0021752352    284904.75    1656203.7 -3.5651129e-05 0.00054775921 -0.00013534776 
  451000    2.4400396 0.0021750359    284904.75    1660066.8 -4.5878499e-05 0.00053354076 -8.8554952e-05 
  452000    2.4397443 0.0021750843    284904.75    1663807.8 1.1497577e-05 0.00064353757 -2.5937056e-05 
  453000    2.4381293 0.0021886367    284904.75    1667465.8 4.2164251e-06 0.00071331086 1.8420367e-07 
  454000    2.4413479 0.0021720397    284904.75    1671102.6 -5.3232176e-05 0.0007573184 0.00011478755 
  455000    2.4371935 0.0021776516    284904.75    1674836.6 -0.00010947258 0.00069926921 6.9708521e-05 
  456000    2.4380119 0.0021768921    284904.75    1678619.4 -0.00023026553 0.00075043718 -1.4823778e-06 
  457000    2.4392189 0.0021775553    284904.75    1682480.3 -0.00039097425 0.00072980846 0.00016183773 
  458000    2.4397205  0.002206031    284904.75    1686344.7 -0.00040994107 0.00084661331 0.00016844892 
  459000    2.4417944 0.0021781704    284904.75      1690410 -0.00029622096 0.0006960398 0.00023993428 
  460000    2.4399424 0.0021911388    284904.75    1694543.4 -0.0002485417 0.00069042546 0.00030090474 
  461000     2.441187 0.0021704943    284904.75      1698705 -0.00020194543 0.00067306191 0.00025766107 
  462000    2.4372596 0.0021768184    284904.75    1702794.8 -0.00019069391 0.00064023699 0.00026356177 
  463000    2.4407281 0.0022039468    284904.75      1706897 -0.00021146571 0.00069568019 0.00027733093 
  464000    2.4420662 0.0021793564    284904.75    1710946.7 -0.00021436413 0.00067944977 0.0002016694 
  465000    2.4367667 0.0021777538    284904.75      1715058 -0.00016545532 0.00071545237 0.00021275984 
  466000    2.4363858 0.0021786451    284904.75    1719174.8 -0.0002330979 0.00072452282 0.00022007618 
  467000    2.4362634 0.0021788204    284904.75    1723146.4 -0.00030337911 0.00076267021 0.00021228958 
  468000     2.436748 0.0021774444    284904.75    1727146.3 -0.00029720651 0.00075266101 0.00020927228 
  469000    2.4364597 0.0021786812    284904.75    1731212.3 -0.00031601127 0.00071488424 0.00020731622 
  470000     2.436174 0.0021792223    284904.75    1735362.3 -0.0003023828 0.00071484568 0.00021399358 
  471000    2.4352086 0.0022190335    284904.75    1739468.7 -0.00036355287 0.00055754554 0.00015897702 
  472000    2.4364054 0.0021784471    284904.75    1743513.8 -0.00030305973 0.00067321792 0.00016904539 
  473000    2.4398328 0.0021741605    284904.75      1747588 -0.00033120964 0.00069763193 0.00022974129 
  474000    2.4381467 0.0021750509    284904.75    1751798.9 -0.00029343505 0.00060977965 0.00022722876 
  475000    2.4388064 0.0021774268    284904.75    1755989.3 -0.00034673902 0.00067237961 0.00027800063 
  476000    2.4416475 0.0021915626    284904.75      1760131 -0.00032175093 0.00060384659 0.00023036231 
  477000    2.4307139 0.0022835986    284904.75    1764202.5 -0.0001696191 0.00073741409 0.00032204163 
  478000    2.4386639 0.0021750092    284904.75    1768347.3 -0.0003222136 0.00047224668 0.00031685675 
  479000    2.4391289 0.0021774882    284904.75    1772533.1 -0.00033586714 0.00042089899 0.00025898517 
  480000    2.4454083 0.0021840217    284904.75    1776749.8 -0.00034713645 0.00048724348 0.00037447211 
  481000    2.4383442 0.0021883893    284904.75    1781038.9 -0.00033888996 0.00061687234 0.00043780986 
  482000    2.4394273   0.00219185    284904.75    1785350.2 -0.00023198837 0.0006011187 0.00030896738 
  483000     2.436439 0.0021780867    284904.75      1789650 -0.00018094876 0.00059782525 0.00045994733 
  484000    2.4400235 0.0021791637    284904.75      1794009 -0.00020492313 0.00063636016 0.00046416207 
  485000    2.4402617 0.0021735842    284904.75    1798475.7 -0.00018766351 0.00064026412 0.00050754796 
  486000    2.4365818 0.0021780618    284904.75    1802976.3 -0.00022031264 0.00055234703 0.0005690555 
  487000    2.4385359 0.0021772785    284904.75      1807451 -0.00021980379 0.00058005068 0.00057164786 
  488000    2.4437271 0.0021780861    284904.75    1811922.6 -0.00015796138 0.00052149356 0.00071113084 
  489000    2.4395242 0.0022109036    284904.75    1816390.9 -0.00013295148 0.00050654722 0.00061244385 
  490000    2.4393884 0.0021734215    284904.75    1820719.6 -0.00011121696 0.00043680582 0.00072305239 
  491000    2.4376869  0.002176815    284904.75    1825103.6 -0.00014514937 0.0004428489 0.00075915906 
  492000    2.4377201 0.0021764549    284904.75    1829499.4 -0.00022805992 0.00042667566 0.00077892561 
  493000     2.440041 0.0021752797    284904.75    1833919.6 -0.0002416492 0.00039805613 0.00073705091 
  494000    2.4348927  0.002215581    284904.75    1838418.5 -0.00029891475 0.00043067462 0.0005743052 
  495000    2.4392347 0.0021773237    284904.75    1842842.1 -0.00026769289 0.00038479978 0.00063080643 
  496000    2.4375836 0.0021769262    284904.75    1847205.1 -0.00021358971 0.00039917859 0.00065185461 
  497000    2.4362118  0.002178664    284904.75    1851500.8 -0.0002668018 0.00038956927 0.00067072438 
  498000    2.4404811 0.0022026396    284904.75    1855721.9 -0.00030175172 0.00044676391 0.00064110131 
  499000    2.4399538 0.0021778186    284904.75    1859766.7 -0.00021243266 0.00033965255 0.00061552944 
  500000    2.4396174 0.0021744819    284904.75    1863736.3 -0.00017190168 0.00035775979 0.00062490581 
  501000    2.4373038 0.0021774551    284904.75    1867708.5 -0.00012761913 0.00032810351   0.00059102 
  502000    2.4403276 0.0021783562    284904.75    1871632.6 -0.00011206814 0.00041558319 0.00049675068 
  503000    2.4373477 0.0021774908    284904.75    1875615.5 -9.9245652e-05 0.00038384528 0.00046687357 
  504000    2.4401184 0.0021748326    284904.75    1879712.6 -2.2622302e-05 0.0005891075 0.00050434559 
  505000    2.4378628 0.0021953701    284904.75      1883798 -6.3415176e-05 0.00060233326 0.00050903865 
  506000    2.4414019 0.0021751422    284904.75    1887731.9 0.00017416715 0.00072257396 0.00064000735 
  507000    2.4370078 0.0021772304    284904.75      1891663 0.00014540908 0.00072259084 0.0006412292 
  508000     2.437581 0.0021768656    284904.75    1895692.6 0.00012037282 0.00070438781 0.00065805678 
  509000    2.4375403 0.0021768163    284904.75    1899750.4 0.00011247333 0.00072020754 0.0006296948 
  510000    2.4355775  0.002234844    284904.75    1903792.5 0.00030369861 0.00065814636 0.00062187855 
  511000    2.4388043 0.0021745112    284904.75    1907836.3 0.00026181968 0.00076913389 0.00058574983 
  512000    2.4362827 0.0021786994    284904.75    1911822.5 0.00028343233 0.00075513527 0.00061015003 
  513000    2.4384652   0.00217778    284904.75    1915847.6 0.00028808668 0.0007467841 0.00058000186 
  514000    2.4360433 0.0021791889    284904.75      1919902 0.00023077925 0.00081653416 0.00056952089 
  515000    2.4389955 0.0022241855    284904.75    1923913.8 0.00027925196 0.00077062785 0.0006018626 
  516000    2.4396896 0.0021779638    284904.75    1927782.3 1.3980852e-05 0.00076303339 0.00082208119 
  517000    2.4394138 0.0021746071    284904.75    1931683.8 2.7719399e-05 0.00076988876 0.00079552133 
  518000    2.4359688 0.0021791958    284904.75    1935520.4 2.7507861e-05 0.00077687126 0.00079842683 
  519000    2.4401545 0.0021728601    284904.75    1939436.1 0.00010016242 0.00078691518 0.00077912401 
  520000    2.4372749 0.0021999296    284904.75    1943495.7 9.2303054e-05 0.00076848558 0.00083163921 
  521000    2.4383699 0.0021832055    284904.75    1947663.2 9.7500669e-05 0.00080711707 0.00076513114 
  522000    2.4391977 0.0021736322    284904.75    1951857.1 0.00010125763 0.00077051957 0.00074108723 
  523000    2.4386003 0.0021746969    284904.75    1955944.9 8.0756319e-05 0.00078482403 0.00068058245 
  524000    2.4389132 0.0021814158    284904.75      1959992 0.00021983031 0.00060808989 0.00057867568 
  525000    2.4379778 0.0021769409    284904.75    1964036.5 0.00028810937 0.00045307794 0.00039584725 
  526000    2.4379826 0.0021912854    284904.75    1968060.4 0.00025271721 0.00046183765 0.00039639756 
  527000    2.4366073 0.0021781064    284904.75    1972030.3 0.00014823448 0.00046690255 0.00022362939 
  528000    2.4359652 0.0021790792    284904.75    1976013.1 0.00014281918 0.00044791177 0.00021932905 
  529000    2.4459548 0.0021760998    284904.75    1980096.2 0.00011618591 0.00043543063 0.00022871133 
  530000    2.4368816 0.0021773041    284904.75    1984257.3 0.00014894181 0.00046229464 0.00021205061 
  531000    2.4390641 0.0021831148    284904.75    1988241.8 6.639308e-05 0.0002988905 -5.5706278e-05 
  532000    2.4391466 0.0021759263    284904.75    1992032.7 5.7615186e-05  0.000330942 -0.00012272093 
  533000    2.4389829 0.0021755697    284904.75    1995857.4 8.347107e-05 0.00035943636 -0.00016277789 
  534000    2.4424847 0.0022194933    284904.75    1999703.3 0.00010803104 0.00035117778 -0.00013536679 
  535000    2.4409013 0.0021816799    284904.75    2003394.2 4.4336656e-05 0.00044975471 -0.0001771106 
  536000    2.4400421 0.0021730772    284904.75    2006947.8 4.5436052e-05 0.00048345424 -0.00018304988 
  537000    2.4332739 0.0022262495    284904.75    2010547.4 -6.0297252e-05 0.00050966738 -0.00036191583 
  538000     2.439707 0.0021762318    284904.75    2014249.3 8.1357877e-05 0.00045910545 -0.00018331817 
  539000    2.4366613 0.0021780134    284904.75    2018039.9 7.5411375e-05 0.0004140322 -0.00017827679 
  540000    2.4384228 0.0021778779    284904.75    2021890.4 -1.2829697e-05 0.00038733683 -0.00019606077 
  541000     2.438908 0.0021767767    284904.75    2025839.6 -1.2785259e-05 0.00038379453 -0.0001583928 
  542000    2.4367975  0.002177233    284904.75    2029737.8 -4.1248047e-05 0.00036529571 -0.00015355456 
  543000    2.4390306  0.002175416    284904.75    2033446.7 -9.5259189e-06 0.00043741276 -0.00012500275 
  544000    2.4402607 0.0021770258    284904.75    2037052.9 -5.0064057e-05 0.00044725563 -0.0001448425 
  545000    2.4454584   0.00220266    284904.75    2040691.5 -0.00013847629 0.00051408613 -0.00016200026 
  546000     2.438607 0.0021969322    284904.75    2044448.3 -0.00018597588 0.00033499656 -0.00023075744 
  547000    2.4375063 0.0021770935    284904.75    2048222.3 -0.00013008804 0.0003623003 -0.0001587591 
  548000    2.4386051 0.0021755569    284904.75    2052032.6 -0.00011737087 0.00026725865 -0.00030084173 
  549000    2.4360842  0.002178982    284904.75    2055964.6 -0.00013794639 0.00020156675 -0.00018330279 
  550000    2.4385583 0.0021798234    284904.75    2059922.4 -0.00017299832 0.00023032451 -0.0002121589 
  551000    2.4413228 0.0021787841    284904.75    2063901.9 -0.00017458119 0.00025274807 -0.00018096668 
  552000    2.4392842 0.0021838409    284904.75    2067876.3 -0.00017376422 0.00020465057 -0.00019274539 
  553000    2.4434582 0.0021809626    284904.75    2071873.6 -0.00021318395 0.00016332283 -0.00017556873 
  554000    2.4394984 0.0021853728    284904.75    2075864.2 -0.00019865425 0.00014250226 -0.00017753028 
  555000    2.4377139 0.0021963011    284904.75    2079932.5 -0.00025811909 0.00013807014 -7.0297587e-05 
  556000    2.4383805 0.0022022852    284904.75      2083937 -0.00013544597 0.0001438044 -8.9726529e-05 
  557000    2.4376004 0.0021762306    284904.75    2087871.6 -0.00019474947 0.00015067462 -0.00015832804 
  558000     2.440257 0.0021728659    284904.75    2091787.4 -0.00024204365 0.00020545047 -0.00014262015 
  559000    2.4243794 0.0022798967    284904.75    2095671.1 -0.00028864648 0.0001911638 -0.00041280218 
  560000     2.436612 0.0021782384    284904.75    2099652.1 -0.00029319983 0.00013065756 5.9252057e-05 
  561000    2.4445506 0.0022114475    284904.75    2103586.1 -0.00034686822 0.00024365025 2.7691477e-05 
  562000    2.4397182 0.0021849081    284904.75    2107526.9 -0.00028462543 0.00022202536 9.2776522e-05 
  563000    2.4418583 0.0021827115    284904.75    2111342.3 -0.00023495177 0.00016988294 0.00018724673 
  564000    2.4381622 0.0021764088    284904.75    2115047.6 -0.00026523901 0.00014354799 0.00023445853 
  565000    2.4397991 0.0021775666    284904.75    2118824.6 -0.00021209666 0.00015507767 0.00020051579 
  566000    2.4369571 0.0021781485    284904.75    2122673.8 -0.00018055405 0.00013638737 0.00022128536 
  567000    2.4424314 0.0021767502    284904.75    2126554.3 -0.00020432159 0.0001392982 0.00021351686 
  568000    2.4323823 0.0022362778    284904.75    2130436.9 8.4520734e-05 0.0001318724 -8.7048217e-05 
  569000     2.439255  0.002173351    284904.75    2134316.5 -0.0001635296 0.00014274291 0.00017749622 
  570000    2.4421557  0.002183795    284904.75      2138229 -0.00014674116 0.00012223279 0.00013303777 
  571000    2.4203142   0.00233904    284904.75    2142225.9  -0.00025284 0.0003252298 -9.1335805e-05 
  572000    2.4428697 0.0021726051    284904.75    2146161.8 -0.00019905784 -2.6869871e-05 0.00010627044 
  573000    2.4374758 0.0021767635    284904.75    2150257.9 -0.00015717747 1.2128264e-05 4.7116788e-05 
  574000    2.4372647 0.0021770206    284904.75    2154317.1 -0.00016889365 5.256581e-05 2.2664745e-05 
  575000    2.4399056 0.0021725734    284904.75    2158349.7 -0.0002904598 0.00012299909 5.2892809e-05 
  576000    2.4391919 0.0021920933    284904.75    2162233.1 -0.00026194167 0.00012680986 -1.6944147e-05 
  577000    2.4392319 0.0021741279    284904.75    2166152.3 -0.00029905606 7.4291329e-05 -2.0647879e-05 
  578000    2.4368806 0.0021778623    284904.75    2170065.5 -0.00035885107 5.5593071e-07 -2.8886514e-06 
  579000    2.4377099 0.0021764954    284904.75    2173979.5 -0.00036384041 -1.0260964e-05 4.1327829e-05 
  580000    2.4439542 0.0021769746    284904.75    2177869.7 -0.00037444602 -2.307273e-05 1.873448e-05 
  581000    2.4454556 0.0022100669    284904.75    2181732.1 -0.00048230528 -3.8670331e-05 4.8259955e-05 
  582000    2.4359984 0.0021791471    284904.75    2185544.4 -0.00040129625 2.3751517e-05 6.0450952e-05 
  583000    2.4366694 0.0021781521    284904.75    2189453.5 -0.00039416292 1.5744307e-05 4.6463662e-05 
  584000    2.4363655 0.0021783018    284904.75    2193420.9 -0.00033584441 3.9333279e-05 2.4678381e-05 
  585000    2.4362583 0.0021787072    284904.75    2197405.2 -0.00032953045 2.9001018e-05 8.2555887e-06 
  586000    2.4431661 0.0021734102    284904.75    2201274.5 -0.00028611486 0.0001876138 -5.478701e-05 
  587000    2.4306619 0.0022427496    284904.75    2204887.2 -0.00024843631 0.00013615701 -8.0521957e-05 
  588000    2.4392304 0.0021756142    284904.75    2208359.3 -0.00026276889 0.00017370603 -9.8299685e-05 
  589000    2.4412437 0.0021734685    284904.75    2211879.8 -0.00023496717 0.00015632182 -0.00010225969 
  590000    2.4378004 0.0021934423    284904.75    2215403.4 -0.00021704809 0.00012306101 -0.00020751298 
  591000    2.4400382 0.0021917389    284904.75    2218897.3 -0.00019894983 0.00012353793 -0.00019680796 
  592000    2.4362942 0.0021786699    284904.75    2222390.5 -0.00020194748 0.00010639946 -0.00020062836 
  593000    2.4421059 0.0021924355    284904.75      2225965 -0.00027780451 0.00010110162 -0.0002586122 
  594000    2.4430982 0.0021764039    284904.75    2229651.4 -0.00017184408 7.5891139e-05 -0.00017613118 
  595000    2.4398874 0.0022115371    284904.75    2233450.7 -0.00025606152 8.0662608e-05 -8.42926e-05 
  596000    2.4409625 0.0021991415    284904.75    2237342.1 -0.00024529656 5.173183e-05 -8.0092418e-05 
  597000    2.4435764 0.0021726291    284904.75    2241295.6 -0.00020634428 -5.2202377e-06 3.8004267e-05 
  598000    2.4419054 0.0021798698    284904.75    2245248.7 -0.00025783537 4.2819163e-05 2.5792133e-05 
  599000    2.4408836 0.0022522118    284904.75    2249210.6 -0.00039289595 0.00010115865 3.3721263e-05 
  600000    2.4366057 0.0021777772    284904.75    2253179.1 -0.00024746927 -3.5747368e-05 -8.2759269e-06 
  601000    2.4406612 0.0021750621    284904.75    2257175.9 -0.00026470392 1.7016508e-06 -4.7403435e-05 
  602000    2.4395929 0.0021755537    284904.75    2261230.1 -0.00027098802 -2.5172556e-05 -2.7529932e-05 
  603000    2.4373797 0.0021767075    284904.75    2265382.7 -0.00024698406 -6.570057e-05 -9.4044469e-05 
  604000    2.4373252 0.0021772186    284904.75    2269582.7 -0.00022043995 -5.9953222e-05 -7.6215343e-05 
  605000    2.4368049 0.0021778231    284904.75    2273838.7 -0.00017819449 -7.8488791e-05 -5.86796e-05 
  606000    2.4370695  0.002177565    284904.75    2278157.5 -0.00019366794 -6.7799409e-05 -3.9648816e-05 
  607000    2.4391343 0.0021832626    284904.75    2282488.1 -0.00020435573 -6.5340791e-05 -5.0564548e-05 
  608000    2.4359077 0.0021796488    284904.75    2286861.3 -0.00021073141 -6.7787976e-05 -4.8457825e-05 
  609000    2.4371489 0.0021774882    284904.75    2291111.6 -0.00015593982 -3.8415452e-05 -1.9521046e-05 
  610000    2.4419424 0.0021718576    284904.75    2295337.5 -0.00017345125 -3.5144229e-05 -4.560444e-05 
  611000    2.4400756 0.0021736868    284904.75    2299443.7 -0.00021478453 -7.1520959e-05 4.861205e-06 
  612000    2.4416371 0.0021775868    284904.75    2303534.5 -0.00013504539 -0.00015105205 3.834811e-05 
  613000    2.4374528 0.0021767981    284904.75    2307505.8 -0.0001205732 -0.00020425578 0.00017071228 
  614000    2.4363137 0.0021787309    284904.75    2311462.9 -0.00012117555 -0.0002090496 0.0001774932 
  615000    2.4359647 0.0021792153    284904.75    2315445.1 -0.00014932007 -0.00021853732 0.00022259202 
  616000    2.4405853 0.0021789714    284904.75    2319414.9 -0.00016301993 -0.0001442591 0.00026163039 
  617000     2.438147  0.002175386    284904.75      2323691 -0.00012487487 -0.0001605455 0.00026898742 
  618000    2.4411699  0.002173118    284904.75    2327926.2 -0.00010135091 -0.00011256316 0.00021531469 
  619000    2.4402777  0.002178853    284904.75    2332063.7 -2.4570214e-05 -0.00013579391 0.00017849664 
  620000    2.4429614 0.0021711885    284904.75      2336195 2.0897517e-05 -0.00017299165 0.00016519211 
  621000    2.4389969 0.0021762893    284904.75    2340468.9 4.6907388e-05 -0.0001263242 0.00012154229 
  622000    2.4401518 0.0021745081    284904.75    2344787.8 2.1709513e-05 -9.7151273e-05 0.00013900598 
  623000    2.4381175 0.0021759661    284904.75    2349170.4 2.693743e-05 -9.1602503e-05 0.00014366852 
  624000    2.4412702  0.002183641    284904.75    2353565.4 -1.1709628e-05 -5.0500338e-05 4.7741027e-06 
  625000    2.4384223 0.0021751833    284904.75    2358022.6 -3.0328095e-05 -3.8970274e-05 -1.3941181e-05 
  626000    2.4423035 0.0021793936    284904.75    2362693.7 -1.8531451e-05 -3.4303552e-06 9.6679048e-06 
  627000    2.4421958 0.0021922495    284904.75    2367541.5 -8.7239091e-05 -1.3158175e-05 -1.0852263e-05 
  628000    2.4396089 0.0021737556    284904.75    2372525.8 -5.2861755e-05 5.5438051e-07 3.5666541e-05 
  629000    2.4401182 0.0021802911    284904.75    2377395.3 -5.6058405e-05 3.8525991e-05 -1.0421865e-06 
  630000    2.4382786 0.0021760939    284904.75      2382220 9.7154343e-06 7.8317061e-05 4.3152646e-05 
  631000     2.442767 0.0021722846    284904.75    2387088.1 2.1875101e-05 6.8520769e-05 5.0172947e-05 
  632000    2.4414157  0.002173771    284904.75    2392087.1 -4.1362877e-06 0.00012450684 9.6842972e-05 
  633000    2.4418837  0.002205374    284904.75    2397132.8 -4.8062996e-05 0.0001097029 0.00015539141 
  634000    2.4427146 0.0021851965    284904.75    2402096.5 3.0715652e-05 0.0001822427 0.00018567631 
  635000    2.4384221 0.0021755937    284904.75    2406948.8 -9.4401501e-05 0.00024662439 4.7485435e-05 
  636000    2.4418912 0.0021721834    284904.75    2411694.8 4.2892049e-06 0.00036400799 0.00011906533 
  637000     2.438573 0.0021866367    284904.75    2416377.1 -4.166942e-06 0.00037337558 6.3767815e-05 
  638000    2.4378361 0.0021772888    284904.75    2421055.5 -2.5264236e-05 0.00036063553 5.9835524e-05 
  639000    2.4422865 0.0021708167    284904.75    2425784.6 -3.4325374e-07 0.00032250561 8.1684918e-05 
  640000    2.4386873 0.0021863979    284904.75      2430544 2.2904498e-05 0.00028570412 0.00012859671 
  641000    2.4378027 0.0021771922    284904.75    2435254.1 -3.3447531e-05 0.00029275881 0.00015894872 
  642000    2.4412868 0.0021771925    284904.75    2439995.2 -6.677353e-05 0.00033308283 0.0002085585 
  643000     2.441861 0.0021891782    284904.75    2444581.2 -0.00011737024 0.00038552878 0.00031079344 
  644000    2.4399629 0.0021737963    284904.75    2449057.7 -8.6797863e-05 0.00034902273 0.0003156911 
  645000    2.4411353 0.0021756723    284904.75    2453494.3 -7.3467705e-05 0.00031053327 0.00028652084 
  646000     2.438761 0.0021850641    284904.75    2457939.6 -4.6678817e-05 0.00024819587 0.00030843718 
  647000     2.439334 0.0021757029    284904.75    2462328.4 -4.2506668e-05 0.00025696174 0.00030565777 
  648000    2.4361849 0.0022431376    284904.75    2466815.8 -2.9690092e-05 0.00024183526 0.00036697853 
  649000    2.4439438 0.0021911404    284904.75      2471391 -3.8500845e-05 0.00023447719 0.00033075182 
  650000    2.4412583 0.0021764247    284904.75    2475894.7 -6.4478153e-05 0.00019514149 0.00037556911 
  651000    2.4409573 0.0021727525    284904.75    2480453.1 -7.4480081e-05 0.00015614325 0.00038817468 
  652000     2.440555  0.002175563    284904.75      2484864 -0.00015432168 0.00019723347 0.00045813781 
  653000    2.4410373 0.0021783352    284904.75    2489168.5 -0.00019911985 0.00019772442 0.00042273307 
  654000    2.4425501 0.0021810214    284904.75    2493532.1 -0.00017538794 0.00020852382 0.00040866249 
  655000    2.4415313 0.0021739265    284904.75    2497897.2 -0.00018422518 0.00018475945 0.00045615352 
  656000    2.4428953 0.0021832268    284904.75    2502260.6 -0.00017215756 0.00019709894  0.000416972 
  657000    2.4379222 0.0021769361    284904.75    2506766.5 -0.00016291723 0.00022093267 0.00034941299 
  658000    2.4443544 0.0021795339    284904.75      2511170 -0.00015578365 0.00025379197 0.00030824878 
  659000    2.4393499 0.0021859273    284904.75    2515577.3 -0.00016615989 0.00028470369 0.00025491734 
  660000     2.437972 0.0021770688    284904.75    2520002.6 -0.0001537761 0.00017689903 0.00033085621 
  661000    2.4442005 0.0021727661    284904.75    2524382.1 -0.0001414788 0.00015403109 0.00028043077 
  662000    2.4424775 0.0022141034    284904.75    2528530.9 -0.0003202027 5.4795802e-05 0.00016694591 
  663000    2.4381167 0.0021774555    284904.75    2532694.5 -0.00021390832 2.3683245e-05 0.00025608878 
  664000    2.4441684 0.0021776621    284904.75    2536841.3 -0.00018129385 -1.5861068e-06 0.00023759845 
  665000    2.4405608 0.0021727364    284904.75    2540915.9 -0.0002388142 -4.378552e-05 0.0002151208 
  666000      2.43817  0.002233739    284904.75    2544826.5 -0.00038197317 -0.00012858865 -2.9463896e-05 
  667000    2.4367541 0.0021779453    284904.75    2548642.4 -0.00030787693 -2.35125e-05 0.00015515627 
  668000    2.4376318 0.0021763057    284904.75    2552455.1 -0.00031361107 -4.9404213e-05 0.00016322464 
  669000    2.4404638 0.0022086554    284904.75    2556326.2 -0.00039449582 -8.9120255e-06 0.00019622423 
  670000    2.4415462 0.0021753018    284904.75    2560276.6 -0.00040203436 -3.8947709e-05 0.00015028011 
  671000    2.4373006 0.0021765253    284904.75    2564318.6 -0.00044863725 -6.1489528e-05 0.00012023207 
  672000    2.4378411 0.0021777625    284904.75    2568378.9 -0.00044708259 -3.5684356e-05 9.4948818e-05 
  673000    2.4396518 0.0022104387    284904.75    2572498.3 -0.00060167155 0.00019787209 7.8228771e-05 
  674000    2.4367277 0.0022039878    284904.75    2576581.3 -0.00033139739 -2.1876709e-05 1.9215947e-07 
  675000    2.4407061  0.002177562    284904.75    2580712.4 -0.00037373573 3.3854848e-05 0.00012299955 
  676000    2.4366012 0.0021783781    284904.75    2584831.7 -0.00037115672 1.487738e-05 0.00010460895 
  677000    2.4363034 0.0021785052    284904.75    2589014.8 -0.00036162076 2.1848619e-05 0.00012036883 
  678000    2.4396455 0.0021806838    284904.75    2593278.1 -0.00036216033 -1.0543071e-05 0.00012241877 
  679000    2.4365987 0.0021780619    284904.75    2597611.8 -0.00030302287 0.00011458488 0.00010368253 
  680000    2.4402556 0.0021777352    284904.75    2601979.2 -0.00030377037 0.00010734814 6.4572636e-05 
  681000    2.4370419 0.0021770686    284904.75    2606395.7 -0.00028578007 6.7737199e-05 4.7338826e-05 
  682000    2.4451077  0.002177225    284904.75    2610718.4 -0.00029774645 4.1808635e-05 0.00012825482 
  683000    2.4394066 0.0021749678    284904.75    2614878.2 -0.00020198283 0.00013737998 4.3592622e-05 
  684000     2.438468 0.0022065726    284904.75    2619005.5 -0.00015184659 0.00010038746 2.5425721e-05 
  685000    2.4374939 0.0021763826    284904.75    2623210.1 -0.00012287803 8.9456098e-05 -2.5095411e-06 
  686000    2.4383625 0.0021884911    284904.75      2627412 -3.3692494e-05 0.00020216775 2.9697476e-05 
  687000    2.4392623 0.0021745457    284904.75    2631373.8 -3.2655501e-05 0.00018140421 1.4918347e-05 
  688000    2.4331381  0.002236717    284904.75    2635254.6 -4.4670051e-05 0.0002457992 1.3494224e-05 
  689000    2.4372066 0.0021774377    284904.75    2639025.2 2.1659111e-05 0.00028625321 -1.036383e-05 
  690000    2.4407812 0.0021814441    284904.75    2642746.7 -3.5634812e-05 0.00027947234 -6.8229856e-05 
  691000    2.4365458 0.0021786816    284904.75    2646140.1 -4.3790854e-05 0.00026187502 -2.2166201e-05 
  692000    2.4374026  0.002177901    284904.75    2649502.2 -9.3555333e-06 0.00023259956 -5.6889076e-05 
  693000    2.4410914 0.0021772195    284904.75    2652804.7 -3.0197206e-05 0.00017986081 -1.3992695e-05 
  694000    2.4346401 0.0022173626    284904.75    2656057.9 -0.0001053008 0.00015513451 1.4832129e-05 
  695000    2.4419936  0.002199637    284904.75    2659241.5 -0.00011171144 0.00022781903 2.0173248e-05 
  696000    2.4359299 0.0022084476    284904.75    2662350.8 -0.00020046354 0.00019694219 3.2477416e-05 
  697000    2.4412237 0.0021805847    284904.75    2665455.2 -0.00017174493 0.00021642049 4.2543303e-05 
  698000    2.4375662 0.0021772411    284904.75    2668618.7 -0.00015319868 0.0001902929 2.3428095e-05 
  699000    2.4390148 0.0021765663    284904.75    2671744.3 -0.00017157153 0.0001960236 0.00011406104 
  700000    2.4380001 0.0022040248    284904.75    2674901.5 -0.00012701519 0.00014372907 8.9810601e-05 
  701000    2.4363496 0.0021785435    284904.75    2678147.8 -0.00014849381 0.00019842242 6.639285e-05 
  702000    2.4363847 0.0021782435    284904.75    2681422.3 -0.00010729923 0.00017577062 9.3124932e-05 
  703000    2.4386932 0.0021788451    284904.75    2684726.1 -0.00010773548 0.00018350311 5.7246632e-05 
  704000    2.4381479 0.0021914832    284904.75    2688200.9 -0.00012304839 0.00020894058 2.1229892e-05 
  705000    2.4377761 0.0021767278    284904.75    2691762.9 -0.00013773114 0.00020684481 8.0940063e-05 
  706000    2.4360995 0.0021790663    284904.75    2695416.9 -0.00016160591 0.0002389061 0.0001518464 
  707000    2.4374201 0.0022027299    284904.75    2699048.4 -0.00021167726 0.00020686129 0.00016454735 
  708000    2.4455322 0.0021896851    284904.75    2702679.6 -0.00020240179 0.00017328543 4.6810942e-05 
  709000    2.4363425 0.0021785645    284904.75    2706340.9 -0.00018782101 0.00015382768 9.414895e-05 
  710000    2.4427916 0.0021805388    284904.75    2709905.2 -0.00019814835 0.0001471803 6.2021069e-05 
  711000    2.4222174 0.0022929576    284904.75    2713476.7 -0.00024863327 0.00016123115 6.0235472e-05 
  712000    2.4359885 0.0021796107    284904.75    2717196.8 -0.00021741385 9.3678403e-05 6.6658842e-05 
  713000    2.4366595 0.0021782914    284904.75      2720912 -0.00019567677 0.00011118246 0.00010487243 
  714000    2.4389274 0.0021838618    284904.75    2724349.8 -0.00026671697 8.2463125e-05 2.9393617e-05 
  715000      2.43922 0.0021751494    284904.75    2727693.6 -0.00026084697 6.480641e-05 0.00013886899 
  716000    2.4409062 0.0021715816    284904.75      2731130 -0.00024122527 7.7490678e-05 0.00015158921 
  717000     2.436788 0.0021781335    284904.75    2734655.2 -0.00022784207 7.1535678e-05 0.00014520169 
  718000    2.4404965 0.0021724161    284904.75    2738121.8 -0.00017257798 2.9957731e-05 6.4408802e-05 
  719000    2.4435874 0.0021822131    284904.75      2741602 -0.00013965622 8.7182212e-05 -3.2304024e-05 
  720000    2.4403569 0.0021785038    284904.75      2745080 -0.00016061342 6.1538939e-05 7.6166277e-06 
  721000    2.4372436  0.002176978    284904.75      2748608 -0.00012647571 7.5455118e-05 9.7724779e-05 
  722000    2.4363529 0.0021786854    284904.75    2752136.3 -0.00013147651 6.5704403e-05 0.00010448693 
  723000    2.4369028 0.0021776645    284904.75    2755698.7 -0.00014904295 0.00010403467 0.00010516543 
  724000    2.4366406 0.0021782351    284904.75    2759088.7 -0.00021360315 8.3089297e-05 6.391566e-05 
  725000     2.437134 0.0021769837    284904.75      2762472 -0.0002564237 0.00012717367 5.0876739e-05 
  726000    2.4361692 0.0021786132    284904.75    2765970.9 -0.00024863453 0.00010540093 5.4867503e-05 
  727000    2.4381412 0.0021757905    284904.75    2769543.7 -0.00025214233 9.6350909e-05 5.7084288e-05 
  728000    2.4388354 0.0021794013    284904.75    2773143.3 -0.00023022063 0.00011496863 7.5960965e-05 
  729000    2.4412938 0.0021740496    284904.75    2776667.1 -0.00027247832 7.9622616e-05 1.6243444e-05 
  730000    2.4463164 0.0021781287    284904.75    2780152.1 -0.00021510029 6.9867887e-05 1.1049033e-06 
  731000     2.437697 0.0021763319    284904.75    2783581.9 -0.00010238443 1.1515964e-05 -5.7418707e-05 
  732000    2.4358083 0.0021798099    284904.75    2787073.2 -0.00018500688 3.9211479e-05 -8.7090618e-05 
  733000    2.4382553 0.0021752814    284904.75    2790585.7 -0.00017227966 4.2990578e-05 -5.8409575e-05 
  734000    2.4365144 0.0021784243    284904.75    2794131.8 -0.00025349783 -3.611429e-05 6.4458447e-05 
  735000    2.4369411 0.0021778041    284904.75    2797403.7 -0.00014399694 -0.00011262218 3.9141665e-05 
  736000    2.4391452 0.0021746643    284904.75      2800697 -0.00018563698 -0.00012262769 1.2321354e-05 
  737000    2.4408333 0.0021916044    284904.75      2804107 -0.00018414512 -4.3465977e-05 -8.723855e-07 
  738000    2.4381025 0.0021774812    284904.75    2807400.7 -0.00029385893 -7.5784084e-05 3.9416463e-05 
  739000     2.440097 0.0021726342    284904.75      2810739 -0.00030537125 -8.6229252e-05 4.8676912e-05 
  740000    2.4387982 0.0021737304    284904.75    2814147.5 -0.00027999261 -0.0001033501 6.125706e-05 
  741000    2.4375571 0.0021766515    284904.75    2817556.1 -0.00030713959 -0.0001197408 4.4213389e-05 
  742000    2.4405672 0.0021777766    284904.75    2821067.9 -0.00028020289 -0.00013459805 0.00010217436 
  743000    2.4389676 0.0021745849    284904.75    2824608.1 -0.00028670118 -0.00012115664 0.00012516512 
  744000    2.4385031 0.0021759636    284904.75    2828180.8 -0.0002636062 -0.00010430536 7.9858743e-05 
  745000    2.4362622 0.0021786019    284904.75    2831750.8 -0.00026600227 -5.7746634e-05 9.063397e-05 
  746000    2.4353607 0.0022156046    284904.75    2835275.2 -0.00023994791 -1.2232214e-06 4.3822452e-05 
[...]
  848000    2.4408776 0.0021894032    284904.75    3239400.5 -9.5149924e-05 -1.5678059e-05 -2.7916338e-05 
  849000    2.4392933 0.0021797569    284904.75    3244371.9 -0.00013838882 -3.9677565e-05 1.2551396e-05 
  850000    2.4405148 0.0021883873    284904.75    3249290.3 -0.0001147727 -4.5973333e-05 -2.5281898e-05 
  851000    2.4402592 0.0022119751    284904.75    3254232.1 -0.00024074243 -9.0420651e-05 -7.3862277e-06 
  852000    2.4378041 0.0021759818    284904.75    3259224.5 -0.00030085535 -9.1185697e-06 -4.7039388e-05 
  853000    2.4411933 0.0021756235    284904.75      3264322 -0.00029587133 -1.5977503e-05 -6.4941172e-05 
  854000    2.4404541 0.0022121515    284904.75    3269503.4 -0.00028945967 -2.9482354e-05 2.7579513e-05 
  855000     2.439762 0.0021726606    284904.75    3274891.4 -0.00030918018 -8.3301314e-05 -0.00017913367 
  856000    2.4402686 0.0021735426    284904.75      3280325 -0.00032747109 -5.7890965e-05 -0.00016819694 
  857000     2.441945 0.0021751868    284904.75    3285693.5 -0.00037697166 -0.00013058427 -0.00018517552 
  858000    2.4404881 0.0021736331    284904.75    3291037.4 -0.00037447476 -0.00012729385 -0.00013851187 
  859000    2.4384866 0.0021748149    284904.75    3296392.9 -0.0003663562 -0.00015779218 -0.00012375811 
  860000    2.4437586 0.0021712804    284904.75    3301648.2 -0.0003338516 -0.00015768883 -0.00016299116 
  861000     2.426196 0.0023017378    284904.75    3306802.7 -0.00056491468 -0.00020393153 0.00016106781 
  862000    2.4382901 0.0021753976    284904.75    3311867.4 -0.00035089766 -0.00018272014 -7.6399921e-05 
  863000    2.4389295 0.0022131407    284904.75    3316892.5 -0.00033198083 -0.00021806273 -7.9769479e-05 
  864000    2.4418596 0.0021808531    284904.75    3321893.9 -0.00024929184 -0.00023919032 -1.0923495e-05 
  865000    2.4402114 0.0021749919    284904.75    3327051.4 -0.00021787769 -0.00021986067 -3.0261728e-06 
  866000    2.4378132 0.0021758159    284904.75    3332284.4 -0.00017702338 -0.00017245316 -1.382175e-06 
  867000    2.4433728 0.0021773026    284904.75    3337518.4 -0.00012701398 -0.00018381527 -2.144011e-06 
  868000    2.4378336 0.0021760321    284904.75    3342862.6 -0.00012125636 -0.00020473356 3.7886979e-05 
  869000    2.4360346 0.0021793127    284904.75    3348424.6 -0.00011137446 -0.00020556114 4.8701561e-05 
  870000    2.4382429 0.0021750838    284904.75    3354120.8 -0.00013393385 -0.00021963945 8.6208465e-05 
  871000    2.4369695 0.0021773358    284904.75    3359754.3 -0.00019239773 -0.00022076079 0.00013262956 
  872000    2.4387824 0.0021793345    284904.75    3365202.5 -0.00017927144 -0.00026790828 0.00015493877 
  873000     2.436229 0.0021787551    284904.75    3370465.3 -0.00022293843 -0.00027021577 0.00019353623 
  874000    2.4372016 0.0021770137    284904.75    3375733.2 -0.00026767687 -0.00027089514 0.0001802478 
  875000     2.439448 0.0021736858    284904.75    3380827.2 -0.00038256307 -0.00013505755 0.00012272536 
  876000    2.4386305 0.0021769685    284904.75    3385797.9 -0.00041215219 -0.00015822013 0.00019697038 
  877000    2.4406384 0.0021981894    284904.75    3390797.1 -0.00038105443 -0.00013221315 0.00025662621 
  878000    2.4374811 0.0021765916    284904.75    3395903.1 -0.00045975433 -0.00018131247 0.00012831941 
  879000    2.4405647 0.0021835569    284904.75    3400915.6 -0.00047855091 -0.00018476372 0.00014461807 
  880000    2.4349942 0.0022284016    284904.75    3405793.1 -0.00068269155 -0.00014899351 0.00016904288 
  881000    2.4383451 0.0021746877    284904.75    3410718.1 -0.00047418549 -8.3427158e-05 0.00032646056 
  882000    2.4388686 0.0021743315    284904.75    3415609.6 -0.00054421484 -5.8177663e-05 0.00028097807 
  883000    2.4363072 0.0021790206    284904.75    3420439.4 -0.00054431729 -7.3113957e-05 0.00032085745 
  884000    2.4361439 0.0021792469    284904.75    3425279.3 -0.00055654013 -6.3411554e-05 0.00030608736 
  885000    2.4373605 0.0021768466    284904.75    3430142.5 -0.00052816584 -9.0626902e-05 0.00033968651 
  886000    2.4358488 0.0021797494    284904.75    3434853.8 -0.00054929614 -8.2958554e-05 0.0003377221 
  887000    2.4371165 0.0021772001    284904.75    3439648.1 -0.00051744392 -8.5033189e-05 0.00031572282 
  888000    2.4371464 0.0021771275    284904.75    3444348.8 -0.00059685862 -0.00013889238 0.00034303066 
  889000    2.4384171 0.0021768857    284904.75    3449131.3 -0.00050591946 -0.00012849539 0.00032675644 
  890000    2.4391497 0.0021745005    284904.75    3453776.4 -0.000497198 -0.00017332953 0.00028544625 
  891000    2.4366687 0.0021777949    284904.75    3458483.9 -0.00048994528 -0.00018047882 0.00034527103 
  892000    2.4433371  0.002176678    284904.75      3463201 -0.00044299176 -0.0001741345 0.00033007732 
  893000    2.4380979 0.0021758191    284904.75      3468016 -0.00040881277 -0.00025596686 0.00026693277 
  894000    2.4379967  0.002176318    284904.75    3472809.2 -0.00035879343 -0.00026991508 0.00031161909 
  895000    2.4359443 0.0021793545    284904.75    3477535.3 -0.00036622022 -0.00027398132 0.00028290323 
  896000    2.4375551 0.0021761461    284904.75    3482368.2 -0.00036074313 -0.00027904834 0.00031916498 
  897000    2.4384129 0.0021785094    284904.75    3487408.1 -0.00035581297 -0.00029064483 0.0003377727 
  898000    2.4394125 0.0021775481    284904.75    3492485.5 -0.00036588382 -0.00029883021 0.00036057194 
  899000    2.4378383 0.0021763538    284904.75    3497795.4 -0.00034746625 -0.00023878123 0.00036419641 
  900000     2.436897 0.0021777887    284904.75    3503255.4 -0.00034390671 -0.00025483889 0.00034828267 
  901000    2.4393645 0.0021754822    284904.75    3508788.8 -0.00033105793 -0.00020127503 0.00037276384 
  902000    2.4363573  0.002178426    284904.75      3514495 -0.00029557988 -0.00025859841 0.00035083135 
  903000    2.4364816 0.0021789062    284904.75    3520255.3 -0.00028489634 -0.0002690986 0.00033662744 
  904000    2.4417808 0.0021819468    284904.75    3525978.9 -0.00029298703 -0.00026851425 0.00033764436 
  905000    2.4414994 0.0021834258    284904.75    3531694.8 -0.00025018622 -0.00026312308 0.00039268385 
  906000    2.4371638 0.0021774878    284904.75    3537406.2 -0.00028516506 -0.00035730727 0.00038058343 
  907000    2.4391293 0.0021748604    284904.75    3543137.4 -0.00048202009 -0.00037963196 0.0004258712 
  908000    2.4425937 0.0021805742    284904.75    3548832.5 -0.00047188619 -0.00035827404 0.00037967771 
  909000    2.4359744 0.0021794337    284904.75    3554538.1 -0.00046702812 -0.00035306483 0.00042334463 
  910000    2.4385912 0.0021746779    284904.75    3560225.8 -0.00047277207 -0.00034745862 0.00041264548 
  911000    2.4386885 0.0021857588    284904.75    3565931.2 -0.00044808103 -0.00030775736 0.00039698862 
  912000    2.4390475 0.0021734856    284904.75    3571692.6 -0.00046208359 -0.00027322818 0.0004465045 
  913000    2.4389931 0.0021741179    284904.75    3577448.3 -0.00042058316 -0.00029118845 0.00058688451 
  914000      2.43766 0.0021776758    284904.75    3583295.4 -0.0004216699 -0.00034987496 0.00064097778 
  915000     2.438659 0.0021755319    284904.75    3589051.9 -0.00043507106 -0.00028871386 0.00068288604 
  916000    2.4366913  0.002177874    284904.75    3594771.9 -0.0003601763 -0.00028679587 0.00076274476 
  917000    2.4380498 0.0021755021    284904.75    3600468.2 -0.00036330333 -0.00030337533 0.00075121734 
  918000    2.4408596 0.0021728997    284904.75    3606073.7 -0.00026811982 -0.00026204071 0.00083386423 
  919000    2.4396722 0.0021744505    284904.75    3611547.1 -0.00028877521 -0.00025483276 0.00081916584 
  920000    2.4381252  0.002175324    284904.75    3617055.2 -0.00025776505 -0.00027366366 0.00078949088 
  921000    2.4381725 0.0021757548    284904.75    3622546.8 -0.00023401503 -0.00026576072 0.00077755212 
  922000    2.4424419 0.0021746314    284904.75    3628040.5 -0.00021278248 -0.00029508111 0.00078131293 
  923000    2.4392954 0.0021804595    284904.75    3633597.7 -0.00022885861 -0.0002679856 0.00067926253 
  924000    2.4422714 0.0021767152    284904.75      3639135 -0.00021219061 -0.00028159054 0.00063871956 
  925000    2.4367443 0.0021780799    284904.75    3644691.9 -0.00017220222 -0.00026874825 0.0006294997 
  926000    2.4393509   0.00217606    284904.75      3650252 -0.00017722098 -0.0002763137 0.0006340509 
  927000    2.4420741 0.0021762983    284904.75    3655923.4 -0.00021041723 -0.0002457679 0.00056512493 
  928000     2.437642 0.0021769366    284904.75    3661630.9 -0.0002563983 -0.00019280147 0.00059694844 
  929000    2.4370774 0.0021767737    284904.75    3667346.1 -0.00024553689 -0.00019184347 0.00059261445 
  930000    2.4372717 0.0021772559    284904.75    3673078.7 -0.0001595721 -0.00021562492 0.00053322792 
  931000    2.4380791 0.0021977739    284904.75    3678871.5 -0.00010694813 -0.00017106075 0.0005008025 
  932000    2.4370719 0.0021773013    284904.75    3684713.3 -0.00014930963 -0.00023440806 0.00053961351 
  933000    2.4419138 0.0021699187    284904.75    3690617.8 -0.0001444934 -0.00023981307 0.00056300083 
  934000    2.4428378 0.0021799541    284904.75    3696601.5 -0.00018413487 -0.00020160357 0.0005094785 
  935000    2.4387022 0.0021778765    284904.75    3702597.5 -0.00021988243 -0.000200529 0.00058591287 
  936000    2.4361436 0.0021788912    284904.75    3708524.7 -0.00019522211 -0.00020371192 0.00058055939 
  937000    2.4380667 0.0021769267    284904.75      3714512 -0.00016067062 -0.00022100619 0.00051938735 
  938000    2.4406991 0.0021727311    284904.75    3720516.5 -0.00015674837 -0.00028196318 0.0005074311 
  939000    2.4388905 0.0021831517    284904.75    3726575.7 -0.00010320073 -0.00026283055 0.00058041755 
  940000    2.4383232  0.002176739    284904.75    3732799.5 -0.00011315096 -0.00026811121 0.00054923653 
  941000    2.4429876 0.0021810676    284904.75    3739124.4 -8.9517981e-05 -0.00022986961 0.00056829603 
  942000      2.44085 0.0021749188    284904.75    3745467.5 -0.00011103778 -0.00026159626 0.00053985571 
  943000    2.4438415 0.0022005476    284904.75    3751778.7 -0.00021942221 -0.0002016664 0.00049044162 
  944000    2.4369671 0.0021776841    284904.75    3758173.2 -0.00011042082 -0.00022620886 0.00054632616 
  945000    2.4375565 0.0021765821    284904.75    3764559.9 -0.00015110546 -0.00021371183 0.00053391545 
  946000    2.4373681 0.0021767058    284904.75    3770989.8 -0.00014106649 -0.00023052996 0.0005164618 
  947000    2.4377386 0.0021768145    284904.75    3777548.2 -0.00013992137 -0.00021446132 0.00051908859 
  948000    2.4375037  0.002175937    284904.75    3784150.6 -0.00022940722 -0.00029139621 0.00054811508 
  949000    2.4415766 0.0021915251    284904.75    3790693.9 -0.00019518343 -0.00036595612 0.00058507198 
  950000    2.4390429 0.0021778252    284904.75    3797250.8 -0.00014889749 -0.00039415718 0.00060075329 
  951000    2.4357956 0.0021798047    284904.75    3803863.9 -0.00013315739 -0.00035420604 0.00058983378 
  952000     2.437023 0.0021775499    284904.75    3810458.8 -0.00018582958 -0.0003835584 0.00060461669 
  953000    2.4414351  0.002177178    284904.75    3817011.1 -0.00015480675 -0.00038439897 0.00062550574 
  954000    2.4421988 0.0022231111    284904.75    3823432.8 -0.00012710812 -0.00025029468 0.0009259189 
  955000    2.4380308 0.0021765337    284904.75    3829749.8 -0.00011042362 -0.00039080801 0.00078385273 
  956000     2.437194  0.002176991    284904.75    3836103.5 -0.000115533 -0.00034860464 0.00074066524 
  957000    2.4408656 0.0021773194    284904.75      3842509 -0.0001037747 -0.00030833738 0.00075823041 
  958000    2.4394205 0.0021745403    284904.75    3848983.2 -0.00018120782 -0.00028297313 0.00078713219 
  959000    2.4375003 0.0021769013    284904.75    3855504.3 -0.00020339847 -0.00028253528 0.00078917027 
  960000    2.4342249 0.0022259492    284904.75    3862067.8 -0.00026179268 -0.00011171661 0.00088154239 
  961000    2.4398672 0.0021913723    284904.75    3868186.8 -0.0001789573 -0.00016132707 0.00074530259 
  962000     2.438468 0.0021748857    284904.75    3874218.5 -0.0001768387 -0.00015107583 0.0007704267 
  963000    2.4373446 0.0021768001    284904.75    3880337.3 -0.00018322705 -7.9351076e-05 0.00074789742 
  964000    2.4417725 0.0021717081    284904.75    3886520.3 -0.00022218068 -7.5498975e-05 0.00075122268 
  965000     2.437135 0.0021766242    284904.75    3892493.3 -0.00021731764 -2.7553749e-05 0.00070292268 
  966000    2.4371914 0.0021773699    284904.75    3898387.2 -0.00021978405 -3.1194708e-05 0.00069555229 
  967000    2.4423233 0.0021816147    284904.75    3904229.2 -0.00021698449 -1.5979915e-05 0.00069581678 
  968000    2.4413145 0.0021916631    284904.75    3910052.4 -0.000215462 6.1121259e-05 0.00073490277 
  969000    2.4296433 0.0022528767    284904.75    3915789.9 -0.00026745101 2.3762364e-05 0.00054559445 
  970000    2.4396609 0.0021745575    284904.75    3921685.6 -0.00021318212 -3.1738393e-06 0.00072003757 
  971000    2.4412369 0.0021835067    284904.75    3927721.3 -0.00023508464 2.8495309e-05 0.00067721186 
  972000    2.4364755  0.002177706    284904.75    3933858.9 -0.000222281 2.0073938e-05 0.00060988046 
  973000    2.4402922 0.0021737827    284904.75    3939820.7 -0.00023095561 4.4777168e-05 0.0006563091 
  974000    2.4362813 0.0021788487    284904.75    3945732.3 -0.00017795648 8.3226397e-05 0.00064300557 
  975000    2.4418681  0.002174488    284904.75    3951732.9 -0.00010085069 -3.1769069e-05 0.00048772498 
  976000    2.4382337 0.0021753246    284904.75    3957687.9 -4.9975628e-05 -2.7177504e-05 0.00051266408 
  977000    2.4403566 0.0021790526    284904.75    3963511.9 -3.6772295e-05 -4.7203024e-05 0.00051776224 
  978000    2.4383719 0.0021749826    284904.75    3969189.9 -9.9582067e-05 3.8663161e-05 0.0004562875 
  979000    2.4376687 0.0021762337    284904.75      3974884 -0.00013746017 1.1740857e-05 0.00056896372 
  980000    2.4360968 0.0021787017    284904.75    3980524.6 -0.00016558473 -1.3289186e-05 0.00056340604 
  981000    2.4368479 0.0021776253    284904.75    3986077.4 -0.00014537973 -4.511784e-05 0.00038872261 
  982000    2.4375101 0.0021768205    284904.75    3991272.9 -0.00011725845 -3.4336397e-05 0.00035401873 
  983000    2.4390491 0.0021747335    284904.75    3996408.5 -1.1011306e-06 -3.594876e-05 0.00028986178 
  984000    2.4378957 0.0021772719    284904.75    4001510.7 2.1506391e-05 3.5962933e-05 0.00023849616 
  985000    2.4363469 0.0021785289    284904.75    4006407.8 -2.1640672e-05 -3.8927137e-05 0.00024797775 
  986000    2.4378464 0.0021758828    284904.75    4011273.9 -2.8128758e-05 -1.5397765e-05 0.00029066404 
  987000    2.4376807 0.0021762751    284904.75    4016128.4 4.8250532e-06 -9.4516782e-05 0.00021071428 
  988000    2.4361519 0.0021786075    284904.75      4020752 -7.1542385e-05 -6.1209126e-05 0.00025162604 
  989000    2.4381178 0.0021751069    284904.75    4025350.1 -6.0858489e-05 -8.1695694e-05 0.00024509896 
  990000    2.4379943 0.0021778021    284904.75    4029799.3 -4.2317732e-05 -7.724519e-05 0.00019071241 
  991000    2.4426846  0.002183776    284904.75    4034202.4 -6.3066137e-05 -2.6677478e-05 0.00023272005 
  992000    2.4375963 0.0021761724    284904.75    4038621.2 -9.2069505e-05 -7.7651911e-05 0.00024039764 
  993000    2.4370628 0.0021773247    284904.75    4042990.3 -0.00010044631 -6.9989546e-05 0.00019215719 
  994000    2.4323204 0.0022328029    284904.75    4047223.6 -0.00010635624 -0.00011627818 0.00031630736 
  995000     2.439552 0.0021747248    284904.75    4051654.3 -0.00011535518 3.1855266e-05 0.00028239309 
  996000    2.4359344 0.0021794332    284904.75    4056220.7 -0.00010901577 5.5104035e-05  0.000247057 
  997000    2.4421895 0.0021722891    284904.75    4060753.3 -0.00014536869 3.4355219e-05 0.00029835992 
  998000    2.4399093 0.0021739707    284904.75    4065294.3 -0.00017132584 7.0751471e-05 0.00028377065 
  999000    2.4382042 0.0021761597    284904.75    4069728.8 -0.00022037103 0.00013244404 0.00017650938 
 1000000    2.4404873 0.0021745786    284904.75    4073981.3 -0.00030227187 0.00011859381 0.00024047567 
Loop time of 200.867 on 1 procs for 1000000 steps with 256 atoms

Pair  time (%) = 2.53379 (1.26143)
Neigh time (%) = 14.7865 (7.36136)
Comm  time (%) = 1.73097 (0.861748)
Outpt time (%) = 0.08777 (0.0436956)
Other time (%) = 181.728 (90.4718)

Nlocal:    256 ave 256 max 256 min
Histogram: 1 0 0 0 0 0 0 0 0 0
Nghost:    79 ave 79 max 79 min
Histogram: 1 0 0 0 0 0 0 0 0 0
Neighs:    11 ave 11 max 11 min
Histogram: 1 0 0 0 0 0 0 0 0 0

Total # of neighbors = 11
Ave neighs/atom = 0.0429688
Neighbor list builds = 75425
Dangerous builds = 0
#	run			10000
	unfix			1
	uncompute		myKE
	uncompute		myPE
	uncompute		myStress
	uncompute		flux
	uncompute		myDis
	unfix			JJ

	next seed
	next iseed
jump lmp.in.gk loop_seed
variable iseed loop 10
variable seed index 11111 22222 33333 44444 55555 66666 77777 88888 99999 11112
clear

# Lennard-Jones
#Prepare Geometry---------------------------------------------------------------
units			lj
atom_style		atomic
read_data		lmp.in.x0.1
  orthogonal box = (0 0 0) to (65.8011 65.8011 65.8011)
  1 by 1 by 1 MPI processor grid
  256 atoms
#Initialize Structure-----------------------------------------------------------
#mass           	1  1.0
#group         		Ar type = 1
#LJ Potentials------------------------------------------------------------------
pair_style		lj/cut 2.5
pair_coeff		* * 1.0 1.0
pair_modify          	shift yes
#pair_modify   	tail no

#Variables----------------------------------------------------------------------
#LJ Parameters
variable    	kB 		equal 1.3806504e-23 	# [J/K] Boltzmann
variable	sigma_Ar 	equal 3.4e-10 		# m
variable	eps_Ar		equal 1.67e-21		# J
variable	mass_Ar		equal 6.63e-26		# kg
variable	tau_Ar		equal 2.1423e-12	# s
#thermo Parameters
variable    	T_melt 		equal 300*(${kB}/${eps_Ar})
variable    	T_melt 		equal 300*(1.3806504000000001236e-23/${eps_Ar})
variable    	T_melt 		equal 300*(1.3806504000000001236e-23/1.6699999999999999942e-21)
variable	T_0K		equal 0.00001
variable	T_2_5K		equal 2.5*(${kB}/${eps_Ar})
variable	T_2_5K		equal 2.5*(1.3806504000000001236e-23/${eps_Ar})
variable	T_2_5K		equal 2.5*(1.3806504000000001236e-23/1.6699999999999999942e-21)
variable	T_5K		equal 5*(${kB}/${eps_Ar})
variable	T_5K		equal 5*(1.3806504000000001236e-23/${eps_Ar})
variable	T_5K		equal 5*(1.3806504000000001236e-23/1.6699999999999999942e-21)
variable	T_10K		equal 10*(${kB}/${eps_Ar})
variable	T_10K		equal 10*(1.3806504000000001236e-23/${eps_Ar})
variable	T_10K		equal 10*(1.3806504000000001236e-23/1.6699999999999999942e-21)
variable	T_15K		equal 15*(${kB}/${eps_Ar})
variable	T_15K		equal 15*(1.3806504000000001236e-23/${eps_Ar})
variable	T_15K		equal 15*(1.3806504000000001236e-23/1.6699999999999999942e-21)
variable	T_300K		equal 300*(${kB}/${eps_Ar})
variable	T_300K		equal 300*(1.3806504000000001236e-23/${eps_Ar})
variable	T_300K		equal 300*(1.3806504000000001236e-23/1.6699999999999999942e-21)

variable   	dt 		equal 0.002
variable	quench_rate	equal 1.0
variable	quench_length 	equal 10000
#kappa parameters
variable    	p 		equal 100000 		# correlation length
variable    	s 		equal 5  		# sample interval
variable    	d 		equal $p*$s 		# dump interval
variable    	d 		equal 100000*$s 		
variable    	d 		equal 100000*5 		

#SED parameters
variable	w_step		equal 2^5
variable	w_total		equal 2^16
variable	t_total		equal 2^18
variable	num_ffts	equal ${t_total}/${w_total}
variable	num_ffts	equal 262144/${w_total}
variable	num_ffts	equal 262144/65536

#------------ RUN TEMP ---------------------------------------------------------------------
variable 	T_run 		equal ${T_300K}
variable 	T_run 		equal 2.4802102994011980819
#------------ RUN TEMP ---------------------------------------------------------------------

log 	log_heat_${iseed}.lammps
log 	log_heat_9.lammps
