LAMMPS (2 Nov 2010)
# study thermal resistance of CnT junction
# 10/27/2010

read_restart	save.20ns
  orthogonal box = (-1002.25 -50 -1002.25) to (1002.25 50 1002.25)
  16 by 1 by 16 processor grid
  39120 atoms

#pair_style: sets the formula(e) LAMMPS uses to compute interactions between pairs;
#airebo: computes AIREBO potential
pair_style	airebo 2.0 1 1

#reads data from "data.6x6" file

#pair_coeff: sets the pairwise force fields coefficients of pairs of atom types
pair_coeff * * CH.airebo C

#neighbor: sets parameters that affect the building of pairwise neighbot lists; 2.0: distance units; bin: stlye
neighbor        2.0 bin
#neigh_modify: sets parameters that affect the building and use of pairwise neighbor lists
#delay 5: delay building until 5 steps from last build; check: affect how often lists are built as a simulation runs
neigh_modify    delay 5 check yes

# timestep = 1fs  (metal unit 1 = 1 ps)
timestep        0.001

#sc lattice has 1 basis atom at the lower-left-bottom corner of the cube
lattice  	sc 	1
Lattice spacing in x,y,z = 1 1 1

#thermo_style: sets style & content for printing thermo. data
#custom: most deneral setting, allows user to specify what they want printed (here: step, temp, pe, ke, etotal)
thermo_style    custom step temp pe ke etotal
#thermo N: computes and prints thermodynamic info every N timesteps (here: 10,000)
thermo          10000
#atom will become "lost" and there will be an error if it goes outside of the thermo boundary
thermo_modify   lost error

# Fix the boundary to prevent pseudo momentum transfer
fix             freeze_wall    wall setforce 0.0 0.0 0.0

# switch to NVE simulation
fix             E_bulk  bulk  nve 

# transfer a constant heat from cold_R to hot_R
# the heat is back-calculated from q = -k*deltT/l
# heat = 0.01*1.6E-7 W
fix             H1 hot_R  heat 1  0.01
fix             H2 cold_R heat 1 -0.01

dump            1 all xyz 250000 dump.xyz

compute		ke all ke/atom
variable	temp atom c_ke*335.43*23.06

fix		xcnt_lo x_lo ave/spatial 100 100 10000 x lower 0.05 v_temp file x_lo_T.txt units reduced
fix		zcnt_hi z_hi ave/spatial 100 100 10000 z lower 0.05 v_temp file z_hi_T.txt units reduced

fix		xcnt_lo1 x_lo ave/spatial 500 1000 500000 x lower 1 v_temp file x_lo_all.txt units reduced
fix		zcnt_hi1 z_hi ave/spatial 500 1000 500000 z lower 1 v_temp file z_hi_all.txt units reduced
#writes a restart file every N (here: 25,000) timesteps to files "restart.1" and "restart.s"
restart         100000 restart.1 restart.2
#runs simulation for N timesteps (here: 5,000,000)
run             50000000
Memory usage per processor = 7.03687e+13 Mbytes
Step Temp PotEng KinEng TotEng 
20800000    300.84469   -285823.32    1521.2295   -284302.09 
20810000    299.16773   -285814.91    1512.7499   -284302.16 
20820000    300.59367   -285822.13    1519.9602   -284302.17 
20830000    300.13313   -285819.67    1517.6315   -284302.04 
20840000    298.95498   -285813.69    1511.6741   -284302.02 
20850000    300.29541   -285820.55     1518.452    -284302.1 
20860000    299.06691   -285814.22    1512.2401   -284301.98 
20870000    301.51698   -285826.54    1524.6289   -284301.92 
20880000    299.33173   -285815.48    1513.5792    -284301.9 
20890000    300.62494   -285822.25    1520.1183   -284302.13 
20900000    299.91432   -285818.63     1516.525   -284302.11 
20910000    301.23703   -285825.39    1523.2133   -284302.18 
20920000    300.37166   -285820.91    1518.8376   -284302.07 
20930000    300.47513   -285821.36    1519.3608      -284302 
20940000    299.63852   -285817.19    1515.1304   -284302.06 
20950000    299.35475   -285815.68    1513.6956   -284301.98 
20960000    300.56958   -285821.82    1519.8384   -284301.99 
20970000    302.18718   -285830.19    1528.0178   -284302.17 
20980000    299.45792   -285816.19    1514.2173   -284301.97 
20990000    300.11397   -285819.67    1517.5346   -284302.13 
21000000    300.32329   -285820.56     1518.593   -284301.97 
21010000    299.08919   -285814.32    1512.3527   -284301.97 
21020000    301.04566   -285824.44    1522.2457    -284302.2 
21030000    299.53708   -285816.68    1514.6175   -284302.06 
21040000    301.67042   -285827.59    1525.4048   -284302.18 
21050000    297.83047   -285807.92     1505.988   -284301.93 
21060000     301.0627   -285824.44    1522.3319   -284302.11 
21070000      299.599   -285816.93    1514.9306      -284302 
21080000    300.02089   -285818.92    1517.0639   -284301.85 
21090000    299.68049   -285817.27    1515.3427   -284301.92 
21100000    300.76367    -285822.9    1520.8198   -284302.08 
21110000    299.79191   -285817.92    1515.9061   -284302.02 
21120000    299.83972   -285818.16    1516.1478   -284302.02 
21130000    299.38124   -285816.04    1513.8295   -284302.21 
21140000    299.92405   -285818.64    1516.5742   -284302.06 
21150000    299.59435   -285816.92    1514.9071   -284302.02 
21160000    298.80379   -285812.88    1510.9096   -284301.97 
21170000    300.89446   -285823.54    1521.4811   -284302.06 
21180000    299.72486   -285817.74     1515.567   -284302.17 
21190000    300.67052   -285822.52    1520.3488   -284302.17 
21200000     299.1691   -285814.71    1512.7568   -284301.95 
21210000    299.32229   -285815.47    1513.5314   -284301.94 
21220000    300.44583   -285821.13    1519.2126   -284301.92 
21230000    301.02234   -285824.07    1522.1278   -284301.94 
21240000    300.03486   -285819.06    1517.1346   -284301.93 
21250000     299.6141   -285816.91     1515.007    -284301.9 
21260000    301.39063   -285825.95      1523.99   -284301.96 
21270000     300.3003   -285820.46    1518.4768   -284301.98 
21280000    300.68309   -285822.41    1520.4123      -284302 
21290000    302.13594   -285829.86    1527.7587    -284302.1 
21300000    300.69505   -285822.37    1520.4728    -284301.9 
21310000    299.42698   -285815.99    1514.0608   -284301.93 
21320000     299.6119   -285817.06    1514.9958   -284302.06 
21330000    299.61092   -285817.01    1514.9909   -284302.02 
21340000    301.01287   -285824.17    1522.0799   -284302.09 
21350000    299.11153   -285814.39    1512.4657   -284301.93 
21360000    299.67547   -285817.15    1515.3173   -284301.83 
21370000     299.3817   -285815.85    1513.8318   -284302.02 
21380000     299.1362   -285814.56    1512.5905   -284301.97 
21390000    299.76786   -285817.84    1515.7845   -284302.06 
21400000    300.96024   -285823.79    1521.8138   -284301.97 
21410000    300.92169   -285823.67    1521.6188   -284302.05 
21420000    300.25008   -285820.39    1518.2228   -284302.17 
21430000    300.13906    -285819.7    1517.6614   -284302.04 
21440000    300.79664   -285823.09    1520.9865    -284302.1 
21450000    300.41007   -285820.99    1519.0318   -284301.96 
21460000    299.13773   -285814.51    1512.5982   -284301.91 
21470000    302.22442   -285830.35    1528.2061   -284302.14 
21480000    299.09899   -285814.32    1512.4023   -284301.92 
21490000    300.31084   -285820.53      1518.53      -284302 
21500000    301.65561   -285827.44    1525.3299   -284302.11 
21510000    300.33469   -285820.52    1518.6506   -284301.87 
21520000    301.31641   -285825.47    1523.6148   -284301.86 
21530000     299.9156    -285818.5    1516.5315   -284301.97 
21540000    300.93485   -285823.67    1521.6854   -284301.99 
21550000    300.15108   -285819.63    1517.7222   -284301.91 
21560000    300.24106   -285820.05    1518.1772   -284301.87 
21570000    300.90187   -285823.33    1521.5186   -284301.81 
21580000    301.66779   -285827.28    1525.3915   -284301.88 
21590000    300.21628   -285820.02    1518.0519   -284301.97 
21600000    300.19352   -285819.75    1517.9368   -284301.81 
21610000    301.35312   -285825.84    1523.8004   -284302.04 
21620000    300.51867   -285821.57    1519.5809   -284301.99 
21630000    300.65943   -285822.08    1520.2927   -284301.79 
21640000    300.69299   -285822.28    1520.4624   -284301.82 
21650000    298.57239   -285811.56    1509.7395   -284301.82 
21660000    299.01127   -285813.71    1511.9587   -284301.75 
21670000    300.22495   -285819.75    1518.0957   -284301.66 
21680000    300.28777   -285820.25    1518.4134   -284301.83 
21690000      298.961   -285813.27    1511.7046   -284301.56 
21700000    301.60725   -285826.84    1525.0854   -284301.75 
21710000    301.89833   -285828.47    1526.5573   -284301.92 
21720000    301.72291   -285827.39    1525.6702   -284301.72 
21730000    299.68025   -285816.93    1515.3414   -284301.59 
21740000    300.78536   -285822.65    1520.9295   -284301.72 
21750000    300.66863   -285822.09    1520.3392   -284301.75 
21760000    300.24649   -285819.81    1518.2046    -284301.6 
21770000      300.683   -285822.08    1520.4119   -284301.67 
21780000     299.7405   -285817.42    1515.6461   -284301.78 
21790000    298.86682   -285812.76    1511.2283   -284301.53 
21800000    300.15417   -285819.37    1517.7378   -284301.63 
21810000    302.02776   -285829.05    1527.2117   -284301.84 
21820000    300.36157   -285820.45    1518.7866   -284301.66 
21830000    300.26143   -285820.05    1518.2802   -284301.77 
21840000    300.17873    -285819.7    1517.8621   -284301.84 
21850000    301.56093   -285826.67    1524.8512   -284301.82 
21860000    301.29193   -285825.17     1523.491   -284301.68 
21870000    299.10083   -285814.05    1512.4116   -284301.64 
21880000    299.58169    -285816.5    1514.8431   -284301.65 
21890000     301.4081   -285825.75    1524.0784   -284301.67 
21900000    300.79453   -285822.72    1520.9759   -284301.74 
21910000    299.64041   -285816.81      1515.14   -284301.67 
21920000     301.7479   -285827.44    1525.7966   -284301.64 
21930000    299.98262   -285818.56    1516.8704   -284301.69 
21940000    299.20909   -285814.41     1512.959   -284301.45 
21950000    301.61671   -285826.64    1525.1332   -284301.51 
21960000    300.88789   -285823.31    1521.4479   -284301.87 
21970000     301.2404   -285824.93    1523.2304    -284301.7 
21980000    300.98248   -285823.55    1521.9262   -284301.63 
21990000    301.05412   -285823.92    1522.2885   -284301.64 
22000000    300.85662   -285822.78    1521.2898   -284301.49 
22010000    299.95806   -285818.37    1516.7462   -284301.62 
22020000    300.04508   -285818.66    1517.1862   -284301.47 
22030000    299.16221    -285814.1     1512.722   -284301.38 
22040000    298.44111   -285810.44    1509.0757   -284301.36 
22050000    302.08528   -285829.09    1527.5026   -284301.59 
22060000     300.8109   -285822.55    1521.0586   -284301.49 
22070000    301.40964   -285825.56    1524.0862   -284301.48 
22080000    299.75903   -285817.15    1515.7398   -284301.41 
22090000    300.76176   -285822.17    1520.8101   -284301.36 
22100000      301.065   -285823.86    1522.3435   -284301.52 
22110000    299.88685   -285817.73    1516.3861   -284301.34 
22120000    299.35831   -285814.99    1513.7136   -284301.28 
22130000    299.03114   -285813.42    1512.0592   -284301.36 
22140000    301.52831   -285826.11    1524.6862   -284301.42 
22150000    300.87807   -285822.71    1521.3983   -284301.31 
22160000    299.52338   -285815.91    1514.5482   -284301.36 
22170000    300.89992   -285822.98    1521.5087   -284301.47 
22180000     299.2758   -285814.56    1513.2964   -284301.26 
22190000    298.08265   -285808.48    1507.2632   -284301.21 
22200000    300.78684   -285822.26     1520.937   -284301.32 
22210000    301.49937   -285825.97    1524.5399   -284301.43 
22220000    302.10868   -285828.99    1527.6209   -284301.37 
22230000    300.63059   -285821.39    1520.1469   -284301.24 
22240000     301.3889   -285825.25    1523.9813   -284301.27 
22250000    301.26252   -285824.59    1523.3423   -284301.25 
22260000    299.40756   -285815.13    1513.9626   -284301.17 
22270000    300.45902   -285820.53    1519.2794   -284301.25 
22280000    299.60438   -285816.04    1514.9578   -284301.09 
22290000    301.27125   -285824.64    1523.3864   -284301.25 
22300000    299.39006   -285814.98    1513.8741   -284301.11 
22310000    299.38882   -285814.84    1513.8678   -284300.98 
22320000    298.99548   -285812.91    1511.8789   -284301.03 
22330000    299.35408   -285814.88    1513.6922   -284301.19 
22340000    299.70768   -285816.63    1515.4802   -284301.15 
22350000    300.54023   -285820.84      1519.69   -284301.15 
22360000    301.83395   -285827.61    1526.2317   -284301.38 
22370000      300.975   -285823.22    1521.8884   -284301.33 
22380000    299.08979   -285813.38    1512.3558   -284301.02 
22390000    299.63953   -285816.28    1515.1356   -284301.14 
22400000    302.11422   -285828.76    1527.6489   -284301.11 
22410000    301.03733   -285823.35    1522.2036   -284301.15 
22420000     301.0428   -285823.29    1522.2313   -284301.06 
22430000     300.3598   -285819.74    1518.7776   -284300.96 
22440000    300.89113   -285822.77    1521.4643   -284301.31 
22450000    301.05689   -285823.39    1522.3025   -284301.08 
22460000     300.8124   -285822.12    1521.0662   -284301.06 
22470000    301.98649   -285828.16     1527.003   -284301.16 
22480000     301.4354   -285825.39    1524.2164   -284301.18 
22490000    302.19056   -285829.09    1528.0349   -284301.06 
22500000    301.33168   -285824.89    1523.6919    -284301.2 
22510000    300.03701   -285818.17    1517.1454   -284301.03 
22520000    301.05129   -285823.48    1522.2741   -284301.21 
22530000    300.37853   -285820.13    1518.8723   -284301.25 
22540000    300.23586   -285819.28    1518.1509   -284301.13 
22550000    300.27437   -285819.41    1518.3456   -284301.06 
22560000    301.24412   -285824.45    1523.2492   -284301.21 
22570000    301.11704   -285823.67    1522.6066   -284301.06 
22580000    298.57339   -285810.58    1509.7446   -284300.83 
22590000    300.62992   -285821.27    1520.1435   -284301.13 
22600000    300.66756   -285821.35    1520.3338   -284301.01 
22610000    301.25981   -285824.43    1523.3285    -284301.1 
22620000    300.81803   -285822.13    1521.0947   -284301.03 
22630000    300.54881   -285820.77    1519.7334   -284301.03 
22640000    300.76219   -285821.76    1520.8123   -284300.95 
22650000    300.38906      -285820    1518.9256   -284301.08 
22660000    300.29453   -285819.37    1518.4476   -284300.92 
22670000    301.69653   -285826.61    1525.5368   -284301.07 
22680000    301.35407   -285824.73    1523.8052   -284300.92 
22690000    301.39752   -285825.16    1524.0249   -284301.13 
22700000    301.12366   -285823.74    1522.6401    -284301.1 
22710000    300.82965   -285822.16    1521.1534   -284301.01 
22720000    300.39496   -285819.82    1518.9554   -284300.86 
22730000    300.14173   -285818.59     1517.675   -284300.92 
22740000    300.03737   -285818.03    1517.1473   -284300.88 
22750000    300.54546    -285820.8    1519.7164   -284301.09 
22760000    300.14207    -285818.5    1517.6767   -284300.82 
22770000    300.62804    -285821.2     1520.134   -284301.07 
22780000    299.75018   -285816.62    1515.6951   -284300.92 
22790000    302.10202   -285828.67    1527.5872   -284301.08 
22800000    299.33609   -285814.47    1513.6012   -284300.87 
22810000    301.21095   -285823.99    1523.0815    -284300.9 
22820000    301.33612   -285824.84    1523.7144   -284301.12 
22830000     299.8991    -285817.5    1516.4481   -284301.05 
22840000    300.26228   -285819.33    1518.2845   -284301.04 
22850000    300.27809   -285819.48    1518.3645   -284301.12 
22860000    300.49493   -285820.32    1519.4609   -284300.86 
22870000     302.4854   -285830.62    1529.5258   -284301.09 
22880000    301.76968   -285826.99    1525.9067   -284301.08 
22890000    300.84314   -285822.14    1521.2217   -284300.92 
22900000      299.838   -285817.05    1516.1391   -284300.91 
22910000    300.47416   -285820.27    1519.3559   -284300.92 
22920000     299.5997    -285815.9    1514.9341   -284300.96 
22930000    299.82569   -285817.04    1516.0769   -284300.96 
22940000    299.30137   -285814.41    1513.4256   -284300.99 
22950000    301.75605   -285826.88    1525.8378   -284301.05 
22960000    300.95609   -285822.54    1521.7928   -284300.74 
22970000    301.01306   -285823.09    1522.0809   -284301.01 
22980000    301.25856   -285824.43    1523.3222   -284301.11 
22990000     299.7007   -285816.22    1515.4449   -284300.77 
23000000    299.79337   -285816.75    1515.9135   -284300.84 
23010000    301.37169   -285824.82    1523.8943   -284300.93 
23020000    300.48698   -285820.39    1519.4207   -284300.97 
23030000    299.82899   -285816.75    1516.0936   -284300.66 
23040000    300.10231   -285818.46    1517.4756   -284300.99 
23050000    301.58973   -285825.96    1524.9968   -284300.96 
23060000    299.73849   -285816.45    1515.6359   -284300.82 
23070000    299.01489   -285812.86     1511.977   -284300.88 
23080000    301.71113   -285826.49    1525.6106   -284300.88 
23090000    301.16225   -285823.66    1522.8352   -284300.82 
23100000    300.79988   -285821.93    1521.0029   -284300.93 
23110000    300.29065   -285819.32    1518.4279    -284300.9 
23120000     301.2267   -285824.03    1523.1611   -284300.87 
23130000    301.84059   -285827.25    1526.2653   -284300.98 
23140000    301.34777   -285824.81    1523.7733   -284301.04 
23150000    299.08011   -285812.95    1512.3068   -284300.64 
23160000     302.7965   -285832.07    1531.0989   -284300.97 
23170000    300.02602   -285817.86    1517.0899   -284300.77 
23180000    300.84053   -285822.04    1521.2084   -284300.83 
23190000    300.04814   -285817.79    1517.2017   -284300.58 
23200000    300.52029   -285820.47    1519.5892   -284300.88 
23210000    298.90106    -285812.1    1511.4015    -284300.7 
23220000    299.29956      -285814    1513.4165   -284300.58 
23230000     301.3239   -285824.39    1523.6526   -284300.74 
23240000     300.7327   -285821.36    1520.6632    -284300.7 
23250000    299.39581   -285814.47    1513.9032   -284300.57 
23260000     299.0244   -285812.67    1512.0251   -284300.65 
23270000    299.51394   -285815.24    1514.5005   -284300.74 
23280000    300.22388   -285818.83    1518.0903   -284300.74 
23290000    301.03633   -285823.04    1522.1985   -284300.84 
23300000    301.90626   -285827.36    1526.5973   -284300.76 
23310000    299.78206   -285816.65    1515.8563    -284300.8 
23320000    301.74739   -285826.56     1525.794   -284300.77 
23330000    300.23647   -285818.81     1518.154   -284300.66 
23340000    298.49378   -285810.07     1509.342   -284300.72 
23350000    299.10867   -285813.13    1512.4512   -284300.67 
23360000    300.93307   -285822.44    1521.6764   -284300.77 
23370000    299.83899    -285816.8    1516.1442   -284300.66 
23380000    300.89719   -285822.15     1521.495   -284300.66 
23390000    299.56499   -285815.43    1514.7586   -284300.68 
23400000     299.8964   -285817.09    1516.4344   -284300.65 
23410000    299.79066   -285816.75    1515.8997   -284300.85 
23420000    301.40484   -285824.75    1524.0619   -284300.69 
23430000    300.02352   -285817.67    1517.0772    -284300.6 
23440000    299.65731   -285816.06    1515.2255   -284300.84 
23450000    302.36754   -285829.76    1528.9298   -284300.83 
23460000    300.68072   -285821.17    1520.4003   -284300.77 
23470000    299.80568   -285816.66    1515.9757   -284300.68 
23480000     300.3421   -285819.28    1518.6881   -284300.59 
23490000    300.61992   -285820.65    1520.0929   -284300.56 
23500000    301.15446   -285823.55    1522.7959   -284300.75 
23510000    301.12958   -285823.39      1522.67   -284300.72 
23520000    301.56309   -285825.62    1524.8621   -284300.76 
23530000    299.58317   -285815.29    1514.8506   -284300.44 
23540000    300.11707   -285817.99    1517.5502   -284300.44 
23550000     299.3343   -285814.06    1513.5921   -284300.46 
23560000    301.51344   -285825.19    1524.6111   -284300.58 
23570000    300.80027    -285821.7    1521.0049    -284300.7 
23580000    301.17657   -285823.47    1522.9076   -284300.57 
23590000    301.12322   -285823.12    1522.6379   -284300.48 
23600000    300.93348   -285822.31    1521.6785   -284300.63 
23610000    299.29574   -285813.91    1513.3972   -284300.52 
23620000     299.9789   -285817.31    1516.8516   -284300.46 
23630000    300.82634   -285821.76    1521.1367   -284300.62 
23640000    300.59567   -285820.61    1519.9703   -284300.64 
23650000    299.71949   -285816.01    1515.5399   -284300.47 
23660000    301.16976   -285823.42    1522.8732   -284300.54 
23670000    300.51792   -285820.15    1519.5772   -284300.57 
23680000    300.63692    -285820.7    1520.1789   -284300.52 
23690000     301.1151   -285823.22    1522.5968   -284300.62 
23700000    299.09084   -285812.87    1512.3611   -284300.51 
23710000     299.0401   -285812.48    1512.1045   -284300.37 
23720000    299.87066   -285816.69    1516.3043   -284300.38 
23730000    299.64335   -285815.65    1515.1549    -284300.5 
23740000    300.24215   -285818.69    1518.1827    -284300.5 
23750000    299.91401   -285816.99    1516.5235   -284300.47 
23760000    300.08396   -285817.91    1517.3828   -284300.53 
23770000    299.68892   -285815.78    1515.3853   -284300.39 
23780000    302.35789   -285829.39     1528.881   -284300.51 
23790000    300.94599    -285822.3    1521.7417   -284300.56 
23800000    299.04955   -285812.55    1512.1523   -284300.39 
23810000    301.08002   -285823.01    1522.4194   -284300.59 
23820000    298.84067    -285811.3    1511.0961   -284300.21 
23830000    300.12137   -285817.88     1517.572   -284300.31 
23840000    300.94358   -285821.99    1521.7295   -284300.26 
23850000    300.96136   -285822.11    1521.8194   -284300.29 
23860000     300.5083   -285819.81    1519.5285   -284300.29 
23870000    300.41349   -285819.21    1519.0491   -284300.16 
23880000    299.90391   -285816.77    1516.4724   -284300.29 
23890000    301.38752   -285824.47    1523.9743    -284300.5 
23900000    301.34151   -285824.21    1523.7417   -284300.46 
23910000    300.12747   -285818.04    1517.6028   -284300.44 
23920000     301.0657    -285822.7     1522.347   -284300.35 
23930000    299.32131   -285813.67    1513.5265   -284300.14 
23940000    300.62397   -285820.31    1520.1134   -284300.19 
23950000    300.31615   -285818.61    1518.5569   -284300.05 
23960000    300.23336   -285818.35    1518.1383   -284300.22 
23970000    300.81399   -285821.12    1521.0742   -284300.04 
23980000    301.22948   -285823.69    1523.1752   -284300.51 
23990000     301.0715   -285822.67    1522.3763   -284300.29 
24000000     301.3253   -285823.97    1523.6597   -284300.31 
24010000     300.3982   -285819.24    1518.9718   -284300.26 
24020000    300.25143   -285818.47    1518.2297   -284300.24 
24030000    301.74043   -285826.23    1525.7588   -284300.48 
24040000    301.08728   -285822.87    1522.4561   -284300.42 
24050000    300.11651   -285818.02    1517.5474   -284300.47 
24060000    300.92907   -285822.04    1521.6562   -284300.38 
24070000    300.34747   -285819.18    1518.7153   -284300.46 
24080000    301.65767    -285825.7    1525.3403   -284300.36 
24090000     300.2621    -285818.5    1518.2836   -284300.22 
24100000    300.33505   -285818.94    1518.6525   -284300.29 
24110000    299.45198   -285814.53    1514.1872   -284300.35 
24120000    301.57075   -285825.31    1524.9008   -284300.41 
24130000    299.00468   -285812.11    1511.9254   -284300.19 
24140000    299.94574   -285817.01    1516.6839   -284300.33 
24150000    300.42167   -285819.44    1519.0905   -284300.35 
24160000    300.60906    -285820.4     1520.038   -284300.36 
24170000    299.97221   -285817.31    1516.8178   -284300.49 
24180000    299.41222   -285814.31    1513.9861   -284300.32 
24190000    299.47644    -285814.5    1514.3109   -284300.19 
24200000    301.37664   -285824.31    1523.9193   -284300.39 
24210000     300.4339   -285819.61    1519.1523   -284300.46 
24220000    300.63696    -285820.6    1520.1791   -284300.42 
24230000    300.19596    -285818.5    1517.9492   -284300.55 
24240000    300.66962    -285820.8    1520.3442   -284300.46 
24250000    300.41617   -285819.58    1519.0627   -284300.52 
24260000    299.41662   -285814.25    1514.0084   -284300.24 
24270000     300.0465   -285817.64    1517.1934   -284300.45 
24280000    301.09883   -285823.05    1522.5145   -284300.54 
24290000    299.62664   -285815.42    1515.0704   -284300.35 
24300000    301.25428   -285823.61    1523.3006   -284300.31 
24310000    301.73351   -285826.25    1525.7238   -284300.53 
24320000     302.2592   -285828.83     1528.382   -284300.45 
24330000    300.15389   -285818.08    1517.7365   -284300.34 
24340000    300.11926   -285817.91    1517.5613   -284300.35 
24350000    299.70796   -285815.72    1515.4816   -284300.24 
24360000     300.4363   -285819.41    1519.1644   -284300.24 
24370000    300.42616   -285819.47    1519.1132   -284300.36 
24380000    299.93103   -285816.96    1516.6096   -284300.35 
24390000    301.74105   -285826.11     1525.762   -284300.34 
24400000    300.82231   -285821.48    1521.1163   -284300.36 
24410000    298.59754   -285810.04    1509.8667   -284300.18 
24420000    300.94512   -285821.95    1521.7373   -284300.21 
24430000    299.79807   -285816.21    1515.9372   -284300.27 
24440000    300.50057   -285819.66    1519.4894   -284300.17 
24450000    301.57578   -285825.25    1524.9262   -284300.32 
24460000     300.4866   -285819.63    1519.4188   -284300.21 
24470000    299.26016   -285813.16    1513.2173   -284299.94 
24480000    300.33717   -285818.73    1518.6632   -284300.07 
24490000    300.48732   -285819.45    1519.4224   -284300.03 
24500000    300.42921   -285819.28    1519.1286   -284300.16 
24510000    300.33472   -285818.69    1518.6508   -284300.04 
24520000    300.88732   -285821.58    1521.4451   -284300.14 
24530000     300.3062   -285818.35    1518.5066   -284299.85 
24540000     301.4697    -285824.5    1524.3898   -284300.11 
24550000    301.35051   -285823.73    1523.7872   -284299.94 
24560000    299.76462   -285815.77    1515.7681      -284300 
24570000    301.36508   -285823.75    1523.8609   -284299.88 
24580000    301.68434   -285825.53    1525.4752   -284300.05 
24590000     300.0106   -285816.94    1517.0119   -284299.93 
24600000    301.58636      -285825    1524.9797   -284300.02 
24610000    301.15555    -285822.8    1522.8013      -284300 
24620000    301.30373   -285823.47    1523.5506   -284299.91 
24630000    299.24009   -285812.95    1513.1158   -284299.83 
24640000    301.32329   -285823.72    1523.6496   -284300.07 
24650000    300.86643   -285821.29    1521.3394   -284299.95 
24660000    300.02617   -285816.83    1517.0906   -284299.74 
24670000    301.82647   -285826.15    1526.1939   -284299.96 
24680000    299.83951   -285815.91    1516.1468   -284299.76 
24690000    299.16003   -285812.34     1512.711   -284299.63 
24700000    301.17057   -285822.76    1522.8773   -284299.89 
24710000    301.96779   -285826.83    1526.9085   -284299.93 
24720000    301.17419   -285822.78    1522.8956   -284299.89 
24730000    300.00688   -285816.74    1516.9931   -284299.75 
24740000    300.22794   -285817.94    1518.1109   -284299.83 
24750000    301.90659   -285826.55     1526.599   -284299.95 
24760000    301.04207   -285822.07    1522.2275   -284299.84 
24770000    300.42252   -285818.86    1519.0948   -284299.77 
24780000    301.58604   -285824.93    1524.9781   -284299.95 
24790000    302.75073    -285830.8    1530.8674   -284299.94 
24800000    301.28564   -285823.19    1523.4592   -284299.73 
24810000    300.51756   -285819.17    1519.5754   -284299.59 
24820000    302.13937   -285827.55    1527.7761   -284299.78 
24830000    299.51962   -285814.17    1514.5292   -284299.64 
24840000    299.15392   -285812.42      1512.68   -284299.74 
24850000    299.94648   -285816.38    1516.6876    -284299.7 
24860000    300.55262   -285819.36    1519.7526   -284299.61 
24870000    302.26097   -285828.24     1528.391   -284299.85 
24880000     299.6324   -285814.61    1515.0995   -284299.51 
24890000    298.30073   -285807.79    1508.3659   -284299.42 
24900000    302.07026   -285827.12    1527.4266    -284299.7 
24910000    301.57522   -285824.61    1524.9235   -284299.68 
24920000    298.83284   -285810.54    1511.0565   -284299.49 
24930000    300.33766    -285818.1    1518.6657   -284299.44 
24940000    299.43564   -285813.42    1514.1046   -284299.32 
24950000    300.95509   -285821.32    1521.7877   -284299.53 
24960000    299.63221   -285814.57    1515.0986   -284299.47 
24970000    301.20552   -285822.73     1523.054   -284299.68 
24980000    300.89548   -285821.21    1521.4863   -284299.72 
24990000    301.19238   -285822.66    1522.9876   -284299.68 
25000000    298.66585   -285809.75    1510.2121   -284299.54 
25010000    301.81949   -285825.71    1526.1586   -284299.55 
25020000    301.45382   -285823.96    1524.3096   -284299.65 
25030000    299.55729   -285814.14    1514.7197   -284299.42 
25040000    299.29077   -285812.91     1513.372   -284299.54 
25050000    299.95752   -285816.28    1516.7435   -284299.53 
25060000    301.16194   -285822.52    1522.8337   -284299.69 
25070000    299.01315    -285811.5    1511.9683   -284299.53 
25080000    300.83484   -285820.58    1521.1797    -284299.4 
25090000    300.00272   -285816.43     1516.972   -284299.46 
25100000    300.48216   -285818.79    1519.3963    -284299.4 
25110000    299.85855   -285815.81    1516.2431   -284299.57 
25120000    300.78695   -285820.57    1520.9375   -284299.64 
25130000    301.18231    -285822.5    1522.9367   -284299.56 
25140000    300.30101   -285817.98    1518.4803    -284299.5 
25150000    301.21423   -285822.71    1523.0981   -284299.61 
25160000    301.51755   -285824.13    1524.6318    -284299.5 
25170000    300.42294   -285818.61    1519.0969   -284299.51 
25180000    300.44488   -285818.67    1519.2078   -284299.47 
25190000    299.93773   -285815.91    1516.6434   -284299.27 
25200000    300.25551   -285817.76    1518.2503   -284299.51 
25210000    300.52361   -285819.05    1519.6059   -284299.45 
25220000    299.54791   -285813.87    1514.6723   -284299.19 
25230000    301.53596   -285824.25    1524.7249   -284299.52 
25240000    300.05438   -285816.69    1517.2332   -284299.45 
25250000    301.27443   -285822.79    1523.4025   -284299.39 
25260000    302.57576    -285829.6    1529.9827   -284299.62 
25270000    301.29582   -285822.98    1523.5106   -284299.47 
25280000     299.1205   -285811.83    1512.5111   -284299.31 
25290000    300.20324   -285817.35     1517.986   -284299.36 
25300000      302.531   -285829.04    1529.7563   -284299.28 
25310000    301.36893   -285823.19    1523.8803   -284299.31 
25320000    300.43681   -285818.63     1519.167   -284299.46 
25330000    300.65297   -285819.58      1520.26   -284299.32 
25340000    299.50688   -285813.66    1514.4648    -284299.2 
25350000    300.36184   -285818.16    1518.7879   -284299.37 
25360000    300.44918   -285818.58    1519.2296   -284299.35 
25370000    300.04997    -285816.5     1517.211   -284299.29 
25380000    301.22082   -285822.51    1523.1314   -284299.38 
25390000    300.44007   -285818.47    1519.1835   -284299.28 
25400000    300.40116   -285818.39    1518.9868    -284299.4 
25410000    300.59371   -285819.35    1519.9604   -284299.38 
25420000     301.0768   -285821.76    1522.4031   -284299.36 
